ITEM: TIMESTEP
0
ITEM: NUMBER OF ATOMS
12
ITEM: BOX BOUNDS pp pp pp
-10.000000 10.000000 
-10.000000 10.000000 
-10.000000 10.000000 
ITEM: ATOMS id mol type q xu yu zu px py pz
1 1 1 3.000000 0.025000 0.043301 0.000000 0.000000 0.000000 0.000000 1 1 0
2 1 1 3.000000 0.525000 0.909327 0.000000 0.000000 0.000000 0.000000 1 1 0
3 1 1 3.000000 1.025000 1.775352 0.000000 0.000000 0.000000 0.000000 1 1 0
4 1 1 3.000000 1.525000 2.641377 0.000000 0.000000 0.000000 0.000000 1 1 0
5 2 1 3.000000 1.500000 2.684679 0.000000 0.000000 0.000000 0.000000 1 1 0
6 2 1 3.000000 0.500000 2.684679 0.000000 0.000000 0.000000 0.000000 1 1 0
7 2 1 3.000000 -0.500000 2.684679 0.000000 0.000000 0.000000 0.000000 1 1 0
8 2 1 3.000000 -1.500000 2.684679 0.000000 0.000000 0.000000 0.000000 1 1 0
9 3 1 3.000000 -1.525000 2.641377 0.000000 0.000000 0.000000 0.000000 1 1 0
10 3 1 3.000000 -1.025000 1.775352 0.000000 0.000000 0.000000 0.000000 1 1 0
11 3 1 3.000000 -0.525000 0.909327 0.000000 0.000000 0.000000 0.000000 1 1 0
12 3 1 3.000000 -0.025000 0.043301 0.000000 0.000000 0.000000 0.000000 1 1 0
ITEM: TIMESTEP
0
ITEM: NUMBER OF ATOMS
12
ITEM: BOX BOUNDS pp pp pp
-10.000000 10.000000 
-10.000000 10.000000 
-10.000000 10.000000 
ITEM: ATOMS id mol type q xu yu zu px py pz
1 1 1 3.000000 -0.171831 0.252158 0.000000 0.000000 0.000000 0.000000 1 1 0
2 1 1 3.000000 0.196319 2.219731 0.000000 0.000000 0.000000 0.000000 1 1 0
3 1 1 3.000000 -0.350559 1.494768 0.000000 0.000000 0.000000 0.000000 1 1 0
4 1 1 3.000000 1.404922 2.436771 -0.000000 0.000000 0.000000 0.000000 1 1 0
5 2 1 3.000000 1.386044 2.482981 -0.000000 0.000000 0.000000 0.000000 1 1 0
6 2 1 3.000000 -0.385878 1.669642 -0.000000 0.000000 0.000000 0.000000 1 1 0
7 2 1 3.000000 0.400322 1.658681 0.000000 0.000000 0.000000 0.000000 1 1 0
8 2 1 3.000000 -1.256334 2.675717 0.000000 0.000000 0.000000 0.000000 1 1 0
9 3 1 3.000000 -1.284895 2.635403 -0.000000 0.000000 0.000000 0.000000 1 1 0
10 3 1 3.000000 0.271011 1.527866 0.000000 0.000000 0.000000 0.000000 1 1 0
11 3 1 3.000000 0.008770 2.158350 0.000000 0.000000 0.000000 0.000000 1 1 0
12 3 1 3.000000 -0.219931 0.265362 -0.000000 0.000000 0.000000 0.000000 1 1 0
ITEM: TIMESTEP
0
ITEM: NUMBER OF ATOMS
12
ITEM: BOX BOUNDS pp pp pp
-10.000000 10.000000 
-10.000000 10.000000 
-10.000000 10.000000 
ITEM: ATOMS id mol type q xu yu zu px py pz
1 1 1 3.000000 -0.171888 0.252073 0.000000 0.000000 0.000000 0.000000 1 1 0
2 1 1 3.000000 0.196314 2.219682 0.000000 0.000000 0.000000 0.000000 1 1 0
3 1 1 3.000000 -0.350524 1.494661 0.000000 0.000000 0.000000 0.000000 1 1 0
4 1 1 3.000000 1.405042 2.436773 -0.000000 0.000000 0.000000 0.000000 1 1 0
5 2 1 3.000000 1.386104 2.483138 -0.000000 0.000000 0.000000 0.000000 1 1 0
6 2 1 3.000000 -0.385917 1.669746 -0.000000 0.000000 0.000000 0.000000 1 1 0
7 2 1 3.000000 0.400390 1.658781 0.000000 0.000000 0.000000 0.000000 1 1 0
8 2 1 3.000000 -1.256466 2.675709 0.000000 0.000000 0.000000 0.000000 1 1 0
9 3 1 3.000000 -1.284742 2.635300 -0.000000 0.000000 0.000000 0.000000 1 1 0
10 3 1 3.000000 0.270918 1.527749 0.000000 0.000000 0.000000 0.000000 1 1 0
11 3 1 3.000000 0.008741 2.158286 0.000000 0.000000 0.000000 0.000000 1 1 0
12 3 1 3.000000 -0.220010 0.265532 -0.000000 0.000000 0.000000 0.000000 1 1 0
ITEM: TIMESTEP
0
ITEM: NUMBER OF ATOMS
12
ITEM: BOX BOUNDS pp pp pp
-10.000000 10.000000 
-10.000000 10.000000 
-10.000000 10.000000 
ITEM: ATOMS id mol type q xu yu zu px py pz
1 1 1 3.000000 -0.171889 0.252074 0.000000 0.000000 0.000000 0.000000 1 1 0
2 1 1 3.000000 0.196313 2.219678 0.000000 0.000000 0.000000 0.000000 1 1 0
3 1 1 3.000000 -0.350523 1.494664 0.000000 0.000000 0.000000 0.000000 1 1 0
4 1 1 3.000000 1.405041 2.436774 0.000000 0.000000 0.000000 0.000000 1 1 0
5 2 1 3.000000 1.386104 2.483137 0.000000 0.000000 0.000000 0.000000 1 1 0
6 2 1 3.000000 -0.385913 1.669746 0.000000 0.000000 0.000000 0.000000 1 1 0
7 2 1 3.000000 0.400386 1.658781 0.000000 0.000000 0.000000 0.000000 1 1 0
8 2 1 3.000000 -1.256465 2.675709 0.000000 0.000000 0.000000 0.000000 1 1 0
9 3 1 3.000000 -1.284745 2.635302 0.000000 0.000000 0.000000 0.000000 1 1 0
10 3 1 3.000000 0.270924 1.527747 0.000000 0.000000 0.000000 0.000000 1 1 0
11 3 1 3.000000 0.008741 2.158291 0.000000 0.000000 0.000000 0.000000 1 1 0
12 3 1 3.000000 -0.220010 0.265529 0.000000 0.000000 0.000000 0.000000 1 1 0
ITEM: TIMESTEP
0
ITEM: NUMBER OF ATOMS
12
ITEM: BOX BOUNDS pp pp pp
-10.000000 10.000000 
-10.000000 10.000000 
-10.000000 10.000000 
ITEM: ATOMS id mol type q xu yu zu px py pz
1 1 1 3.000000 -0.171890 0.252078 0.000000 0.000000 0.000000 0.000000 1 1 0
2 1 1 3.000000 0.196310 2.219669 0.000000 0.000000 0.000000 0.000000 1 1 0
3 1 1 3.000000 -0.350520 1.494675 0.000000 0.000000 0.000000 0.000000 1 1 0
4 1 1 3.000000 1.405037 2.436776 0.000000 0.000000 0.000000 0.000000 1 1 0
5 2 1 3.000000 1.386103 2.483132 0.000000 0.000000 0.000000 0.000000 1 1 0
6 2 1 3.000000 -0.385903 1.669743 0.000000 0.000000 0.000000 0.000000 1 1 0
7 2 1 3.000000 0.400376 1.658779 0.000000 0.000000 0.000000 0.000000 1 1 0
8 2 1 3.000000 -1.256462 2.675708 0.000000 0.000000 0.000000 0.000000 1 1 0
9 3 1 3.000000 -1.284754 2.635306 0.000000 0.000000 0.000000 0.000000 1 1 0
10 3 1 3.000000 0.270941 1.527741 0.000000 0.000000 0.000000 0.000000 1 1 0
11 3 1 3.000000 0.008741 2.158307 0.000000 0.000000 0.000000 0.000000 1 1 0
12 3 1 3.000000 -0.220010 0.265519 0.000000 0.000000 0.000000 0.000000 1 1 0
ITEM: TIMESTEP
0
ITEM: NUMBER OF ATOMS
12
ITEM: BOX BOUNDS pp pp pp
-10.000000 10.000000 
-10.000000 10.000000 
-10.000000 10.000000 
ITEM: ATOMS id mol type q xu yu zu px py pz
1 1 1 3.000000 -0.171892 0.252083 0.000000 0.000000 0.000000 0.000000 1 1 0
2 1 1 3.000000 0.196307 2.219654 0.000000 0.000000 0.000000 0.000000 1 1 0
3 1 1 3.000000 -0.350516 1.494692 0.000000 0.000000 0.000000 0.000000 1 1 0
4 1 1 3.000000 1.405030 2.436779 0.000000 0.000000 0.000000 0.000000 1 1 0
5 2 1 3.000000 1.386101 2.483125 0.000000 0.000000 0.000000 0.000000 1 1 0
6 2 1 3.000000 -0.385887 1.669740 0.000000 0.000000 0.000000 0.000000 1 1 0
7 2 1 3.000000 0.400359 1.658776 0.000000 0.000000 0.000000 0.000000 1 1 0
8 2 1 3.000000 -1.256457 2.675708 0.000000 0.000000 0.000000 0.000000 1 1 0
9 3 1 3.000000 -1.284768 2.635313 0.000000 0.000000 0.000000 0.000000 1 1 0
10 3 1 3.000000 0.270969 1.527731 0.000000 0.000000 0.000000 0.000000 1 1 0
11 3 1 3.000000 0.008741 2.158332 0.000000 0.000000 0.000000 0.000000 1 1 0
12 3 1 3.000000 -0.220010 0.265504 0.000000 0.000000 0.000000 0.000000 1 1 0
ITEM: TIMESTEP
0
ITEM: NUMBER OF ATOMS
12
ITEM: BOX BOUNDS pp pp pp
-10.000000 10.000000 
-10.000000 10.000000 
-10.000000 10.000000 
ITEM: ATOMS id mol type q xu yu zu px py pz
1 1 1 3.000000 -0.171895 0.252092 0.000000 0.000000 0.000000 0.000000 1 1 0
2 1 1 3.000000 0.196302 2.219633 0.000000 0.000000 0.000000 0.000000 1 1 0
3 1 1 3.000000 -0.350510 1.494715 0.000000 0.000000 0.000000 0.000000 1 1 0
4 1 1 3.000000 1.405021 2.436784 0.000000 0.000000 0.000000 0.000000 1 1 0
5 2 1 3.000000 1.386099 2.483114 0.000000 0.000000 0.000000 0.000000 1 1 0
6 2 1 3.000000 -0.385864 1.669735 0.000000 0.000000 0.000000 0.000000 1 1 0
7 2 1 3.000000 0.400336 1.658773 0.000000 0.000000 0.000000 0.000000 1 1 0
8 2 1 3.000000 -1.256450 2.675707 0.000000 0.000000 0.000000 0.000000 1 1 0
9 3 1 3.000000 -1.284787 2.635321 0.000000 0.000000 0.000000 0.000000 1 1 0
10 3 1 3.000000 0.271006 1.527718 0.000000 0.000000 0.000000 0.000000 1 1 0
11 3 1 3.000000 0.008741 2.158365 0.000000 0.000000 0.000000 0.000000 1 1 0
12 3 1 3.000000 -0.220009 0.265485 0.000000 0.000000 0.000000 0.000000 1 1 0
ITEM: TIMESTEP
0
ITEM: NUMBER OF ATOMS
12
ITEM: BOX BOUNDS pp pp pp
-10.000000 10.000000 
-10.000000 10.000000 
-10.000000 10.000000 
ITEM: ATOMS id mol type q xu yu zu px py pz
1 1 1 3.000000 -0.171898 0.252101 0.000000 0.000000 0.000000 0.000000 1 1 0
2 1 1 3.000000 0.196296 2.219608 0.000000 0.000000 0.000000 0.000000 1 1 0
3 1 1 3.000000 -0.350504 1.494743 0.000000 0.000000 0.000000 0.000000 1 1 0
4 1 1 3.000000 1.405009 2.436790 0.000000 0.000000 0.000000 0.000000 1 1 0
5 2 1 3.000000 1.386097 2.483102 0.000000 0.000000 0.000000 0.000000 1 1 0
6 2 1 3.000000 -0.385837 1.669729 0.000000 0.000000 0.000000 0.000000 1 1 0
7 2 1 3.000000 0.400307 1.658769 0.000000 0.000000 0.000000 0.000000 1 1 0
8 2 1 3.000000 -1.256442 2.675705 0.000000 0.000000 0.000000 0.000000 1 1 0
9 3 1 3.000000 -1.284809 2.635332 0.000000 0.000000 0.000000 0.000000 1 1 0
10 3 1 3.000000 0.271051 1.527702 0.000000 0.000000 0.000000 0.000000 1 1 0
11 3 1 3.000000 0.008741 2.158405 0.000000 0.000000 0.000000 0.000000 1 1 0
12 3 1 3.000000 -0.220008 0.265461 0.000000 0.000000 0.000000 0.000000 1 1 0
ITEM: TIMESTEP
0
ITEM: NUMBER OF ATOMS
12
ITEM: BOX BOUNDS pp pp pp
-10.000000 10.000000 
-10.000000 10.000000 
-10.000000 10.000000 
ITEM: ATOMS id mol type q xu yu zu px py pz
1 1 1 3.000000 -0.171902 0.252113 0.000000 0.000000 0.000000 0.000000 1 1 0
2 1 1 3.000000 0.196289 2.219579 0.000000 0.000000 0.000000 0.000000 1 1 0
3 1 1 3.000000 -0.350496 1.494775 0.000000 0.000000 0.000000 0.000000 1 1 0
4 1 1 3.000000 1.404996 2.436797 0.000000 0.000000 0.000000 0.000000 1 1 0
5 2 1 3.000000 1.386094 2.483087 0.000000 0.000000 0.000000 0.000000 1 1 0
6 2 1 3.000000 -0.385805 1.669721 0.000000 0.000000 0.000000 0.000000 1 1 0
7 2 1 3.000000 0.400275 1.658765 0.000000 0.000000 0.000000 0.000000 1 1 0
8 2 1 3.000000 -1.256433 2.675704 0.000000 0.000000 0.000000 0.000000 1 1 0
9 3 1 3.000000 -1.284834 2.635344 0.000000 0.000000 0.000000 0.000000 1 1 0
10 3 1 3.000000 0.271101 1.527686 0.000000 0.000000 0.000000 0.000000 1 1 0
11 3 1 3.000000 0.008742 2.158449 0.000000 0.000000 0.000000 0.000000 1 1 0
12 3 1 3.000000 -0.220007 0.265434 0.000000 0.000000 0.000000 0.000000 1 1 0
ITEM: TIMESTEP
0
ITEM: NUMBER OF ATOMS
12
ITEM: BOX BOUNDS pp pp pp
-10.000000 10.000000 
-10.000000 10.000000 
-10.000000 10.000000 
ITEM: ATOMS id mol type q xu yu zu px py pz
1 1 1 3.000000 -0.171907 0.252125 0.000000 0.000000 0.000000 0.000000 1 1 0
2 1 1 3.000000 0.196283 2.219546 0.000000 0.000000 0.000000 0.000000 1 1 0
3 1 1 3.000000 -0.350488 1.494811 0.000000 0.000000 0.000000 0.000000 1 1 0
4 1 1 3.000000 1.404982 2.436804 0.000000 0.000000 0.000000 0.000000 1 1 0
5 2 1 3.000000 1.386091 2.483070 0.000000 0.000000 0.000000 0.000000 1 1 0
6 2 1 3.000000 -0.385771 1.669713 0.000000 0.000000 0.000000 0.000000 1 1 0
7 2 1 3.000000 0.400240 1.658761 0.000000 0.000000 0.000000 0.000000 1 1 0
8 2 1 3.000000 -1.256422 2.675702 0.000000 0.000000 0.000000 0.000000 1 1 0
9 3 1 3.000000 -1.284860 2.635356 0.000000 0.000000 0.000000 0.000000 1 1 0
10 3 1 3.000000 0.271154 1.527669 0.000000 0.000000 0.000000 0.000000 1 1 0
11 3 1 3.000000 0.008744 2.158495 0.000000 0.000000 0.000000 0.000000 1 1 0
12 3 1 3.000000 -0.220006 0.265406 0.000000 0.000000 0.000000 0.000000 1 1 0
ITEM: TIMESTEP
0
ITEM: NUMBER OF ATOMS
12
ITEM: BOX BOUNDS pp pp pp
-10.000000 10.000000 
-10.000000 10.000000 
-10.000000 10.000000 
ITEM: ATOMS id mol type q xu yu zu px py pz
1 1 1 3.000000 -0.171912 0.252139 0.000000 0.000000 0.000000 0.000000 1 1 0
2 1 1 3.000000 0.196276 2.219512 0.000000 0.000000 0.000000 0.000000 1 1 0
3 1 1 3.000000 -0.350480 1.494849 0.000000 0.000000 0.000000 0.000000 1 1 0
4 1 1 3.000000 1.404966 2.436813 0.000000 0.000000 0.000000 0.000000 1 1 0
5 2 1 3.000000 1.386089 2.483053 0.000000 0.000000 0.000000 0.000000 1 1 0
6 2 1 3.000000 -0.385734 1.669703 0.000000 0.000000 0.000000 0.000000 1 1 0
7 2 1 3.000000 0.400204 1.658758 0.000000 0.000000 0.000000 0.000000 1 1 0
8 2 1 3.000000 -1.256412 2.675699 0.000000 0.000000 0.000000 0.000000 1 1 0
9 3 1 3.000000 -1.284887 2.635368 0.000000 0.000000 0.000000 0.000000 1 1 0
10 3 1 3.000000 0.271207 1.527653 0.000000 0.000000 0.000000 0.000000 1 1 0
11 3 1 3.000000 0.008746 2.158540 0.000000 0.000000 0.000000 0.000000 1 1 0
12 3 1 3.000000 -0.220005 0.265378 0.000000 0.000000 0.000000 0.000000 1 1 0
ITEM: TIMESTEP
0
ITEM: NUMBER OF ATOMS
12
ITEM: BOX BOUNDS pp pp pp
-10.000000 10.000000 
-10.000000 10.000000 
-10.000000 10.000000 
ITEM: ATOMS id mol type q xu yu zu px py pz
1 1 1 3.000000 -0.171917 0.252152 0.000000 0.000000 0.000000 0.000000 1 1 0
2 1 1 3.000000 0.196270 2.219477 0.000000 0.000000 0.000000 0.000000 1 1 0
3 1 1 3.000000 -0.350472 1.494887 0.000000 0.000000 0.000000 0.000000 1 1 0
4 1 1 3.000000 1.404950 2.436823 0.000000 0.000000 0.000000 0.000000 1 1 0
5 2 1 3.000000 1.386086 2.483034 0.000000 0.000000 0.000000 0.000000 1 1 0
6 2 1 3.000000 -0.385698 1.669693 0.000000 0.000000 0.000000 0.000000 1 1 0
7 2 1 3.000000 0.400167 1.658756 0.000000 0.000000 0.000000 0.000000 1 1 0
8 2 1 3.000000 -1.256401 2.675697 0.000000 0.000000 0.000000 0.000000 1 1 0
9 3 1 3.000000 -1.284912 2.635379 0.000000 0.000000 0.000000 0.000000 1 1 0
10 3 1 3.000000 0.271257 1.527639 0.000000 0.000000 0.000000 0.000000 1 1 0
11 3 1 3.000000 0.008749 2.158583 0.000000 0.000000 0.000000 0.000000 1 1 0
12 3 1 3.000000 -0.220004 0.265351 0.000000 0.000000 0.000000 0.000000 1 1 0
ITEM: TIMESTEP
0
ITEM: NUMBER OF ATOMS
12
ITEM: BOX BOUNDS pp pp pp
-10.000000 10.000000 
-10.000000 10.000000 
-10.000000 10.000000 
ITEM: ATOMS id mol type q xu yu zu px py pz
1 1 1 3.000000 -0.171923 0.252165 0.000000 0.000000 0.000000 0.000000 1 1 0
2 1 1 3.000000 0.196265 2.219443 0.000000 0.000000 0.000000 0.000000 1 1 0
3 1 1 3.000000 -0.350465 1.494925 0.000000 0.000000 0.000000 0.000000 1 1 0
4 1 1 3.000000 1.404934 2.436833 0.000000 0.000000 0.000000 0.000000 1 1 0
5 2 1 3.000000 1.386084 2.483015 0.000000 0.000000 0.000000 0.000000 1 1 0
6 2 1 3.000000 -0.385662 1.669681 0.000000 0.000000 0.000000 0.000000 1 1 0
7 2 1 3.000000 0.400132 1.658756 0.000000 0.000000 0.000000 0.000000 1 1 0
8 2 1 3.000000 -1.256390 2.675693 0.000000 0.000000 0.000000 0.000000 1 1 0
9 3 1 3.000000 -1.284935 2.635388 0.000000 0.000000 0.000000 0.000000 1 1 0
10 3 1 3.000000 0.271303 1.527629 0.000000 0.000000 0.000000 0.000000 1 1 0
11 3 1 3.000000 0.008754 2.158620 0.000000 0.000000 0.000000 0.000000 1 1 0
12 3 1 3.000000 -0.220003 0.265327 0.000000 0.000000 0.000000 0.000000 1 1 0
ITEM: TIMESTEP
0
ITEM: NUMBER OF ATOMS
12
ITEM: BOX BOUNDS pp pp pp
-10.000000 10.000000 
-10.000000 10.000000 
-10.000000 10.000000 
ITEM: ATOMS id mol type q xu yu zu px py pz
1 1 1 3.000000 -0.171890 0.252115 0.000000 0.000000 0.000000 0.000000 1 1 0
2 1 1 3.000000 0.196303 2.219427 0.000000 0.000000 0.000000 0.000000 1 1 0
3 1 1 3.000000 -0.350442 1.494893 0.000000 0.000000 0.000000 0.000000 1 1 0
4 1 1 3.000000 1.404991 2.436834 -0.000000 0.000000 0.000000 0.000000 1 1 0
5 2 1 3.000000 1.386075 2.483064 -0.000000 0.000000 0.000000 0.000000 1 1 0
6 2 1 3.000000 -0.385667 1.669735 -0.000000 0.000000 0.000000 0.000000 1 1 0
7 2 1 3.000000 0.400175 1.658825 0.000000 0.000000 0.000000 0.000000 1 1 0
8 2 1 3.000000 -1.256381 2.675718 0.000000 0.000000 0.000000 0.000000 1 1 0
9 3 1 3.000000 -1.284706 2.635130 -0.000000 0.000000 0.000000 0.000000 1 1 0
10 3 1 3.000000 0.271136 1.527512 0.000000 0.000000 0.000000 0.000000 1 1 0
11 3 1 3.000000 0.008583 2.158555 0.000000 0.000000 0.000000 0.000000 1 1 0
12 3 1 3.000000 -0.220082 0.265668 -0.000000 0.000000 0.000000 0.000000 1 1 0
ITEM: TIMESTEP
0
ITEM: NUMBER OF ATOMS
12
ITEM: BOX BOUNDS pp pp pp
-10.000000 10.000000 
-10.000000 10.000000 
-10.000000 10.000000 
ITEM: ATOMS id mol type q xu yu zu px py pz
1 1 1 3.000000 -0.171897 0.252129 0.000000 0.000000 0.000000 0.000000 1 1 0
2 1 1 3.000000 0.196296 2.219392 0.000000 0.000000 0.000000 0.000000 1 1 0
3 1 1 3.000000 -0.350434 1.494931 0.000000 0.000000 0.000000 0.000000 1 1 0
4 1 1 3.000000 1.404975 2.436845 0.000000 0.000000 0.000000 0.000000 1 1 0
5 2 1 3.000000 1.386073 2.483045 0.000000 0.000000 0.000000 0.000000 1 1 0
6 2 1 3.000000 -0.385632 1.669724 0.000000 0.000000 0.000000 0.000000 1 1 0
7 2 1 3.000000 0.400140 1.658823 0.000000 0.000000 0.000000 0.000000 1 1 0
8 2 1 3.000000 -1.256372 2.675714 0.000000 0.000000 0.000000 0.000000 1 1 0
9 3 1 3.000000 -1.284731 2.635142 0.000000 0.000000 0.000000 0.000000 1 1 0
10 3 1 3.000000 0.271186 1.527498 0.000000 0.000000 0.000000 0.000000 1 1 0
11 3 1 3.000000 0.008589 2.158600 0.000000 0.000000 0.000000 0.000000 1 1 0
12 3 1 3.000000 -0.220081 0.265640 0.000000 0.000000 0.000000 0.000000 1 1 0
ITEM: TIMESTEP
0
ITEM: NUMBER OF ATOMS
12
ITEM: BOX BOUNDS pp pp pp
-10.000000 10.000000 
-10.000000 10.000000 
-10.000000 10.000000 
ITEM: ATOMS id mol type q xu yu zu px py pz
1 1 1 3.000000 -0.171905 0.252143 0.000000 0.000000 0.000000 0.000000 1 1 0
2 1 1 3.000000 0.196285 2.219357 0.000000 0.000000 0.000000 0.000000 1 1 0
3 1 1 3.000000 -0.350424 1.494969 0.000000 0.000000 0.000000 0.000000 1 1 0
4 1 1 3.000000 1.404958 2.436857 0.000000 0.000000 0.000000 0.000000 1 1 0
5 2 1 3.000000 1.386072 2.483026 0.000000 0.000000 0.000000 0.000000 1 1 0
6 2 1 3.000000 -0.385599 1.669712 0.000000 0.000000 0.000000 0.000000 1 1 0
7 2 1 3.000000 0.400106 1.658818 0.000000 0.000000 0.000000 0.000000 1 1 0
8 2 1 3.000000 -1.256364 2.675709 0.000000 0.000000 0.000000 0.000000 1 1 0
9 3 1 3.000000 -1.284763 2.635162 0.000000 0.000000 0.000000 0.000000 1 1 0
10 3 1 3.000000 0.271251 1.527472 0.000000 0.000000 0.000000 0.000000 1 1 0
11 3 1 3.000000 0.008599 2.158662 0.000000 0.000000 0.000000 0.000000 1 1 0
12 3 1 3.000000 -0.220079 0.265602 0.000000 0.000000 0.000000 0.000000 1 1 0
ITEM: TIMESTEP
0
ITEM: NUMBER OF ATOMS
12
ITEM: BOX BOUNDS pp pp pp
-10.000000 10.000000 
-10.000000 10.000000 
-10.000000 10.000000 
ITEM: ATOMS id mol type q xu yu zu px py pz
1 1 1 3.000000 -0.171915 0.252158 0.000000 0.000000 0.000000 0.000000 1 1 0
2 1 1 3.000000 0.196271 2.219322 0.000000 0.000000 0.000000 0.000000 1 1 0
3 1 1 3.000000 -0.350412 1.495007 0.000000 0.000000 0.000000 0.000000 1 1 0
4 1 1 3.000000 1.404941 2.436868 0.000000 0.000000 0.000000 0.000000 1 1 0
5 2 1 3.000000 1.386073 2.483007 0.000000 0.000000 0.000000 0.000000 1 1 0
6 2 1 3.000000 -0.385567 1.669702 0.000000 0.000000 0.000000 0.000000 1 1 0
7 2 1 3.000000 0.400073 1.658810 0.000000 0.000000 0.000000 0.000000 1 1 0
8 2 1 3.000000 -1.256359 2.675704 0.000000 0.000000 0.000000 0.000000 1 1 0
9 3 1 3.000000 -1.284800 2.635188 0.000000 0.000000 0.000000 0.000000 1 1 0
10 3 1 3.000000 0.271326 1.527437 0.000000 0.000000 0.000000 0.000000 1 1 0
11 3 1 3.000000 0.008611 2.158741 0.000000 0.000000 0.000000 0.000000 1 1 0
12 3 1 3.000000 -0.220077 0.265555 0.000000 0.000000 0.000000 0.000000 1 1 0
ITEM: TIMESTEP
0
ITEM: NUMBER OF ATOMS
12
ITEM: BOX BOUNDS pp pp pp
-10.000000 10.000000 
-10.000000 10.000000 
-10.000000 10.000000 
ITEM: ATOMS id mol type q xu yu zu px py pz
1 1 1 3.000000 -0.171927 0.252172 0.000000 0.000000 0.000000 0.000000 1 1 0
2 1 1 3.000000 0.196254 2.219289 0.000000 0.000000 0.000000 0.000000 1 1 0
3 1 1 3.000000 -0.350398 1.495043 0.000000 0.000000 0.000000 0.000000 1 1 0
4 1 1 3.000000 1.404923 2.436880 0.000000 0.000000 0.000000 0.000000 1 1 0
5 2 1 3.000000 1.386075 2.482989 0.000000 0.000000 0.000000 0.000000 1 1 0
6 2 1 3.000000 -0.385539 1.669691 0.000000 0.000000 0.000000 0.000000 1 1 0
7 2 1 3.000000 0.400043 1.658799 0.000000 0.000000 0.000000 0.000000 1 1 0
8 2 1 3.000000 -1.256356 2.675697 0.000000 0.000000 0.000000 0.000000 1 1 0
9 3 1 3.000000 -1.284841 2.635219 0.000000 0.000000 0.000000 0.000000 1 1 0
10 3 1 3.000000 0.271409 1.527395 0.000000 0.000000 0.000000 0.000000 1 1 0
11 3 1 3.000000 0.008625 2.158830 0.000000 0.000000 0.000000 0.000000 1 1 0
12 3 1 3.000000 -0.220075 0.265503 0.000000 0.000000 0.000000 0.000000 1 1 0
ITEM: TIMESTEP
0
ITEM: NUMBER OF ATOMS
12
ITEM: BOX BOUNDS pp pp pp
-10.000000 10.000000 
-10.000000 10.000000 
-10.000000 10.000000 
ITEM: ATOMS id mol type q xu yu zu px py pz
1 1 1 3.000000 -0.171939 0.252186 0.000000 0.000000 0.000000 0.000000 1 1 0
2 1 1 3.000000 0.196236 2.219258 0.000000 0.000000 0.000000 0.000000 1 1 0
3 1 1 3.000000 -0.350384 1.495076 0.000000 0.000000 0.000000 0.000000 1 1 0
4 1 1 3.000000 1.404907 2.436892 0.000000 0.000000 0.000000 0.000000 1 1 0
5 2 1 3.000000 1.386077 2.482973 0.000000 0.000000 0.000000 0.000000 1 1 0
6 2 1 3.000000 -0.385516 1.669682 0.000000 0.000000 0.000000 0.000000 1 1 0
7 2 1 3.000000 0.400017 1.658787 0.000000 0.000000 0.000000 0.000000 1 1 0
8 2 1 3.000000 -1.256356 2.675689 0.000000 0.000000 0.000000 0.000000 1 1 0
9 3 1 3.000000 -1.284883 2.635253 0.000000 0.000000 0.000000 0.000000 1 1 0
10 3 1 3.000000 0.271495 1.527349 0.000000 0.000000 0.000000 0.000000 1 1 0
11 3 1 3.000000 0.008643 2.158925 0.000000 0.000000 0.000000 0.000000 1 1 0
12 3 1 3.000000 -0.220072 0.265448 0.000000 0.000000 0.000000 0.000000 1 1 0
ITEM: TIMESTEP
0
ITEM: NUMBER OF ATOMS
12
ITEM: BOX BOUNDS pp pp pp
-10.000000 10.000000 
-10.000000 10.000000 
-10.000000 10.000000 
ITEM: ATOMS id mol type q xu yu zu px py pz
1 1 1 3.000000 -0.171953 0.252199 0.000000 0.000000 0.000000 0.000000 1 1 0
2 1 1 3.000000 0.196217 2.219231 0.000000 0.000000 0.000000 0.000000 1 1 0
3 1 1 3.000000 -0.350370 1.495105 0.000000 0.000000 0.000000 0.000000 1 1 0
4 1 1 3.000000 1.404892 2.436903 0.000000 0.000000 0.000000 0.000000 1 1 0
5 2 1 3.000000 1.386081 2.482958 0.000000 0.000000 0.000000 0.000000 1 1 0
6 2 1 3.000000 -0.385497 1.669673 0.000000 0.000000 0.000000 0.000000 1 1 0
7 2 1 3.000000 0.399996 1.658775 0.000000 0.000000 0.000000 0.000000 1 1 0
8 2 1 3.000000 -1.256358 2.675681 0.000000 0.000000 0.000000 0.000000 1 1 0
9 3 1 3.000000 -1.284923 2.635289 0.000000 0.000000 0.000000 0.000000 1 1 0
10 3 1 3.000000 0.271579 1.527301 0.000000 0.000000 0.000000 0.000000 1 1 0
11 3 1 3.000000 0.008662 2.159022 0.000000 0.000000 0.000000 0.000000 1 1 0
12 3 1 3.000000 -0.220069 0.265391 0.000000 0.000000 0.000000 0.000000 1 1 0
ITEM: TIMESTEP
0
ITEM: NUMBER OF ATOMS
12
ITEM: BOX BOUNDS pp pp pp
-10.000000 10.000000 
-10.000000 10.000000 
-10.000000 10.000000 
ITEM: ATOMS id mol type q xu yu zu px py pz
1 1 1 3.000000 -0.171967 0.252210 0.000000 0.000000 0.000000 0.000000 1 1 0
2 1 1 3.000000 0.196199 2.219208 0.000000 0.000000 0.000000 0.000000 1 1 0
3 1 1 3.000000 -0.350357 1.495128 0.000000 0.000000 0.000000 0.000000 1 1 0
4 1 1 3.000000 1.404879 2.436913 0.000000 0.000000 0.000000 0.000000 1 1 0
5 2 1 3.000000 1.386085 2.482945 0.000000 0.000000 0.000000 0.000000 1 1 0
6 2 1 3.000000 -0.385484 1.669666 0.000000 0.000000 0.000000 0.000000 1 1 0
7 2 1 3.000000 0.399980 1.658762 0.000000 0.000000 0.000000 0.000000 1 1 0
8 2 1 3.000000 -1.256362 2.675671 0.000000 0.000000 0.000000 0.000000 1 1 0
9 3 1 3.000000 -1.284961 2.635325 0.000000 0.000000 0.000000 0.000000 1 1 0
10 3 1 3.000000 0.271657 1.527255 0.000000 0.000000 0.000000 0.000000 1 1 0
11 3 1 3.000000 0.008683 2.159114 0.000000 0.000000 0.000000 0.000000 1 1 0
12 3 1 3.000000 -0.220066 0.265337 0.000000 0.000000 0.000000 0.000000 1 1 0
ITEM: TIMESTEP
0
ITEM: NUMBER OF ATOMS
12
ITEM: BOX BOUNDS pp pp pp
-10.000000 10.000000 
-10.000000 10.000000 
-10.000000 10.000000 
ITEM: ATOMS id mol type q xu yu zu px py pz
1 1 1 3.000000 -0.171983 0.252220 0.000000 0.000000 0.000000 0.000000 1 1 0
2 1 1 3.000000 0.196182 2.219189 0.000000 0.000000 0.000000 0.000000 1 1 0
3 1 1 3.000000 -0.350345 1.495146 0.000000 0.000000 0.000000 0.000000 1 1 0
4 1 1 3.000000 1.404868 2.436923 0.000000 0.000000 0.000000 0.000000 1 1 0
5 2 1 3.000000 1.386090 2.482935 0.000000 0.000000 0.000000 0.000000 1 1 0
6 2 1 3.000000 -0.385476 1.669659 0.000000 0.000000 0.000000 0.000000 1 1 0
7 2 1 3.000000 0.399971 1.658751 0.000000 0.000000 0.000000 0.000000 1 1 0
8 2 1 3.000000 -1.256368 2.675661 0.000000 0.000000 0.000000 0.000000 1 1 0
9 3 1 3.000000 -1.284993 2.635359 0.000000 0.000000 0.000000 0.000000 1 1 0
10 3 1 3.000000 0.271726 1.527212 0.000000 0.000000 0.000000 0.000000 1 1 0
11 3 1 3.000000 0.008706 2.159198 0.000000 0.000000 0.000000 0.000000 1 1 0
12 3 1 3.000000 -0.220062 0.265288 0.000000 0.000000 0.000000 0.000000 1 1 0
ITEM: TIMESTEP
0
ITEM: NUMBER OF ATOMS
12
ITEM: BOX BOUNDS pp pp pp
-10.000000 10.000000 
-10.000000 10.000000 
-10.000000 10.000000 
ITEM: ATOMS id mol type q xu yu zu px py pz
1 1 1 3.000000 -0.171998 0.252228 0.000000 0.000000 0.000000 0.000000 1 1 0
2 1 1 3.000000 0.196169 2.219175 0.000000 0.000000 0.000000 0.000000 1 1 0
3 1 1 3.000000 -0.350335 1.495157 0.000000 0.000000 0.000000 0.000000 1 1 0
4 1 1 3.000000 1.404859 2.436931 0.000000 0.000000 0.000000 0.000000 1 1 0
5 2 1 3.000000 1.386095 2.482928 0.000000 0.000000 0.000000 0.000000 1 1 0
6 2 1 3.000000 -0.385475 1.669653 0.000000 0.000000 0.000000 0.000000 1 1 0
7 2 1 3.000000 0.399968 1.658743 0.000000 0.000000 0.000000 0.000000 1 1 0
8 2 1 3.000000 -1.256377 2.675650 0.000000 0.000000 0.000000 0.000000 1 1 0
9 3 1 3.000000 -1.285019 2.635390 0.000000 0.000000 0.000000 0.000000 1 1 0
10 3 1 3.000000 0.271781 1.527177 0.000000 0.000000 0.000000 0.000000 1 1 0
11 3 1 3.000000 0.008729 2.159268 0.000000 0.000000 0.000000 0.000000 1 1 0
12 3 1 3.000000 -0.220059 0.265247 0.000000 0.000000 0.000000 0.000000 1 1 0
ITEM: TIMESTEP
0
ITEM: NUMBER OF ATOMS
12
ITEM: BOX BOUNDS pp pp pp
-10.000000 10.000000 
-10.000000 10.000000 
-10.000000 10.000000 
ITEM: ATOMS id mol type q xu yu zu px py pz
1 1 1 3.000000 -0.172014 0.252235 0.000000 0.000000 0.000000 0.000000 1 1 0
2 1 1 3.000000 0.196160 2.219167 0.000000 0.000000 0.000000 0.000000 1 1 0
3 1 1 3.000000 -0.350328 1.495162 0.000000 0.000000 0.000000 0.000000 1 1 0
4 1 1 3.000000 1.404853 2.436938 0.000000 0.000000 0.000000 0.000000 1 1 0
5 2 1 3.000000 1.386100 2.482924 0.000000 0.000000 0.000000 0.000000 1 1 0
6 2 1 3.000000 -0.385480 1.669649 0.000000 0.000000 0.000000 0.000000 1 1 0
7 2 1 3.000000 0.399972 1.658737 0.000000 0.000000 0.000000 0.000000 1 1 0
8 2 1 3.000000 -1.256387 2.675639 0.000000 0.000000 0.000000 0.000000 1 1 0
9 3 1 3.000000 -1.285035 2.635416 0.000000 0.000000 0.000000 0.000000 1 1 0
10 3 1 3.000000 0.271820 1.527150 0.000000 0.000000 0.000000 0.000000 1 1 0
11 3 1 3.000000 0.008753 2.159320 0.000000 0.000000 0.000000 0.000000 1 1 0
12 3 1 3.000000 -0.220055 0.265215 0.000000 0.000000 0.000000 0.000000 1 1 0
ITEM: TIMESTEP
0
ITEM: NUMBER OF ATOMS
12
ITEM: BOX BOUNDS pp pp pp
-10.000000 10.000000 
-10.000000 10.000000 
-10.000000 10.000000 
ITEM: ATOMS id mol type q xu yu zu px py pz
1 1 1 3.000000 -0.172056 0.252148 0.000000 0.000000 0.000000 0.000000 1 1 0
2 1 1 3.000000 0.196243 2.219094 0.000000 0.000000 0.000000 0.000000 1 1 0
3 1 1 3.000000 -0.350221 1.494982 0.000000 0.000000 0.000000 0.000000 1 1 0
4 1 1 3.000000 1.404996 2.436906 -0.000000 0.000000 0.000000 0.000000 1 1 0
5 2 1 3.000000 1.386106 2.483108 -0.000000 0.000000 0.000000 0.000000 1 1 0
6 2 1 3.000000 -0.385532 1.669865 -0.000000 0.000000 0.000000 0.000000 1 1 0
7 2 1 3.000000 0.400080 1.658930 0.000000 0.000000 0.000000 0.000000 1 1 0
8 2 1 3.000000 -1.256465 2.675639 0.000000 0.000000 0.000000 0.000000 1 1 0
9 3 1 3.000000 -1.284754 2.635152 -0.000000 0.000000 0.000000 0.000000 1 1 0
10 3 1 3.000000 0.271567 1.526940 0.000000 0.000000 0.000000 0.000000 1 1 0
11 3 1 3.000000 0.008548 2.159202 0.000000 0.000000 0.000000 0.000000 1 1 0
12 3 1 3.000000 -0.220154 0.265584 -0.000000 0.000000 0.000000 0.000000 1 1 0
ITEM: TIMESTEP
0
ITEM: NUMBER OF ATOMS
12
ITEM: BOX BOUNDS pp pp pp
-10.000000 10.000000 
-10.000000 10.000000 
-10.000000 10.000000 
ITEM: ATOMS id mol type q xu yu zu px py pz
1 1 1 3.000000 -0.172072 0.252153 0.000000 0.000000 0.000000 0.000000 1 1 0
2 1 1 3.000000 0.196234 2.219087 0.000000 0.000000 0.000000 0.000000 1 1 0
3 1 1 3.000000 -0.350216 1.494987 0.000000 0.000000 0.000000 0.000000 1 1 0
4 1 1 3.000000 1.404992 2.436912 0.000000 0.000000 0.000000 0.000000 1 1 0
5 2 1 3.000000 1.386111 2.483106 0.000000 0.000000 0.000000 0.000000 1 1 0
6 2 1 3.000000 -0.385538 1.669860 0.000000 0.000000 0.000000 0.000000 1 1 0
7 2 1 3.000000 0.400085 1.658924 0.000000 0.000000 0.000000 0.000000 1 1 0
8 2 1 3.000000 -1.256476 2.675627 0.000000 0.000000 0.000000 0.000000 1 1 0
9 3 1 3.000000 -1.284769 2.635177 0.000000 0.000000 0.000000 0.000000 1 1 0
10 3 1 3.000000 0.271602 1.526918 0.000000 0.000000 0.000000 0.000000 1 1 0
11 3 1 3.000000 0.008573 2.159249 0.000000 0.000000 0.000000 0.000000 1 1 0
12 3 1 3.000000 -0.220150 0.265555 0.000000 0.000000 0.000000 0.000000 1 1 0
ITEM: TIMESTEP
0
ITEM: NUMBER OF ATOMS
12
ITEM: BOX BOUNDS pp pp pp
-10.000000 10.000000 
-10.000000 10.000000 
-10.000000 10.000000 
ITEM: ATOMS id mol type q xu yu zu px py pz
1 1 1 3.000000 -0.172088 0.252159 0.000000 0.000000 0.000000 0.000000 1 1 0
2 1 1 3.000000 0.196224 2.219077 0.000000 0.000000 0.000000 0.000000 1 1 0
3 1 1 3.000000 -0.350212 1.494996 0.000000 0.000000 0.000000 0.000000 1 1 0
4 1 1 3.000000 1.404988 2.436918 0.000000 0.000000 0.000000 0.000000 1 1 0
5 2 1 3.000000 1.386116 2.483103 0.000000 0.000000 0.000000 0.000000 1 1 0
6 2 1 3.000000 -0.385541 1.669851 0.000000 0.000000 0.000000 0.000000 1 1 0
7 2 1 3.000000 0.400086 1.658914 0.000000 0.000000 0.000000 0.000000 1 1 0
8 2 1 3.000000 -1.256487 2.675615 0.000000 0.000000 0.000000 0.000000 1 1 0
9 3 1 3.000000 -1.284787 2.635204 0.000000 0.000000 0.000000 0.000000 1 1 0
10 3 1 3.000000 0.271647 1.526897 0.000000 0.000000 0.000000 0.000000 1 1 0
11 3 1 3.000000 0.008599 2.159303 0.000000 0.000000 0.000000 0.000000 1 1 0
12 3 1 3.000000 -0.220146 0.265521 0.000000 0.000000 0.000000 0.000000 1 1 0
ITEM: TIMESTEP
0
ITEM: NUMBER OF ATOMS
12
ITEM: BOX BOUNDS pp pp pp
-10.000000 10.000000 
-10.000000 10.000000 
-10.000000 10.000000 
ITEM: ATOMS id mol type q xu yu zu px py pz
1 1 1 3.000000 -0.172105 0.252166 0.000000 0.000000 0.000000 0.000000 1 1 0
2 1 1 3.000000 0.196213 2.219064 0.000000 0.000000 0.000000 0.000000 1 1 0
3 1 1 3.000000 -0.350209 1.495012 0.000000 0.000000 0.000000 0.000000 1 1 0
4 1 1 3.000000 1.404983 2.436924 0.000000 0.000000 0.000000 0.000000 1 1 0
5 2 1 3.000000 1.386120 2.483101 0.000000 0.000000 0.000000 0.000000 1 1 0
6 2 1 3.000000 -0.385539 1.669840 0.000000 0.000000 0.000000 0.000000 1 1 0