ITEM: TIMESTEP
0
ITEM: NUMBER OF ATOMS
20
ITEM: BOX BOUNDS pp pp pp
-10.000000 10.000000 
-10.000000 10.000000 
-10.000000 10.000000 
ITEM: ATOMS id mol type q xu yu zu px py pz
1 1 1 1.012457 0.000000 -0.500000 0.000000 0.000000 0.000000 0.000000 0 0 0
2 1 1 1.012457 0.333333 -0.447222 0.000000 0.000000 0.000000 0.000000 1 1 0
3 1 1 1.012457 0.666667 -0.394444 0.000000 0.000000 0.000000 0.000000 1 1 0
4 1 1 1.012457 1.000000 -0.341667 0.000000 0.000000 0.000000 0.000000 1 1 0
5 1 1 1.012457 1.333333 -0.288889 0.000000 0.000000 0.000000 0.000000 1 1 0
6 1 1 1.012457 1.666667 -0.236111 0.000000 0.000000 0.000000 0.000000 1 1 0
7 1 1 1.012457 2.000000 -0.183333 0.000000 0.000000 0.000000 0.000000 1 1 0
8 1 1 1.012457 2.333333 -0.130556 0.000000 0.000000 0.000000 0.000000 1 1 0
9 1 1 1.012457 2.666667 -0.077778 0.000000 0.000000 0.000000 0.000000 1 1 0
10 1 1 1.012457 3.000000 -0.025000 0.000000 0.000000 0.000000 0.000000 1 1 0
11 2 1 1.012457 0.000000 0.500000 0.000000 0.000000 0.000000 0.000000 0 0 0
12 2 1 1.012457 0.333333 0.447222 0.000000 0.000000 0.000000 0.000000 1 1 0
13 2 1 1.012457 0.666667 0.394444 0.000000 0.000000 0.000000 0.000000 1 1 0
14 2 1 1.012457 1.000000 0.341667 0.000000 0.000000 0.000000 0.000000 1 1 0
15 2 1 1.012457 1.333333 0.288889 0.000000 0.000000 0.000000 0.000000 1 1 0
16 2 1 1.012457 1.666667 0.236111 0.000000 0.000000 0.000000 0.000000 1 1 0
17 2 1 1.012457 2.000000 0.183333 0.000000 0.000000 0.000000 0.000000 1 1 0
18 2 1 1.012457 2.333333 0.130556 0.000000 0.000000 0.000000 0.000000 1 1 0
19 2 1 1.012457 2.666667 0.077778 0.000000 0.000000 0.000000 0.000000 1 1 0
20 2 1 1.012457 3.000000 0.025000 0.000000 0.000000 0.000000 0.000000 1 1 0
ITEM: TIMESTEP
0
ITEM: NUMBER OF ATOMS
20
ITEM: BOX BOUNDS pp pp pp
-10.000000 10.000000 
-10.000000 10.000000 
-10.000000 10.000000 
ITEM: ATOMS id mol type q xu yu zu px py pz
1 1 1 1.012457 0.000000 -0.500000 0.000000 0.000000 0.000000 0.000000 0 0 0
2 1 1 1.012457 0.117358 -0.133489 0.000000 0.000000 0.000000 0.000000 1 1 0
3 1 1 1.012457 0.488291 -0.110085 -0.000000 0.000000 0.000000 0.000000 1 1 0
4 1 1 1.012457 0.850175 -0.107238 0.000000 0.000000 0.000000 0.000000 1 1 0
5 1 1 1.012457 1.206798 -0.104432 -0.000000 0.000000 0.000000 0.000000 1 1 0
6 1 1 1.012457 1.554633 -0.121592 0.000000 0.000000 0.000000 0.000000 1 1 0
7 1 1 1.012457 1.865965 -0.105107 -0.000000 0.000000 0.000000 0.000000 1 1 0
8 1 1 1.012457 2.171514 -0.088929 0.000000 0.000000 0.000000 0.000000 1 1 0
9 1 1 1.012457 2.441873 -0.040337 0.000000 0.000000 0.000000 0.000000 1 1 0
10 1 1 1.012457 2.875314 -0.110798 0.000000 0.000000 0.000000 0.000000 1 1 0
11 2 1 1.012457 -0.000000 0.500000 0.000000 0.000000 0.000000 0.000000 0 0 0
12 2 1 1.012457 0.161465 0.168768 0.000000 0.000000 0.000000 0.000000 1 1 0
13 2 1 1.012457 0.486675 0.043404 -0.000000 0.000000 0.000000 0.000000 1 1 0
14 2 1 1.012457 0.825189 -0.014874 -0.000000 0.000000 0.000000 0.000000 1 1 0
15 2 1 1.012457 1.158981 -0.072339 -0.000000 0.000000 0.000000 0.000000 1 1 0
16 2 1 1.012457 1.505684 -0.064590 0.000000 0.000000 0.000000 0.000000 1 1 0
17 2 1 1.012457 1.834914 -0.042328 0.000000 0.000000 0.000000 0.000000 1 1 0
18 2 1 1.012457 2.160327 -0.020325 -0.000000 0.000000 0.000000 0.000000 1 1 0
19 2 1 1.012457 2.468671 0.015857 0.000000 0.000000 0.000000 0.000000 1 1 0
20 2 1 1.012457 2.845795 -0.043319 0.000000 0.000000 0.000000 0.000000 1 1 0
ITEM: TIMESTEP
0
ITEM: NUMBER OF ATOMS
20
ITEM: BOX BOUNDS pp pp pp
-10.000000 10.000000 
-10.000000 10.000000 
-10.000000 10.000000 
ITEM: ATOMS id mol type q xu yu zu px py pz
1 1 1 1.012457 0.000000 -0.500000 0.000000 0.000000 0.000000 0.000000 0 0 0
2 1 1 1.012457 0.117381 -0.133475 0.000000 0.000000 0.000000 0.000000 1 1 0
3 1 1 1.012457 0.488283 -0.110048 -0.000000 0.000000 0.000000 0.000000 1 1 0
4 1 1 1.012457 0.850248 -0.107217 0.000000 0.000000 0.000000 0.000000 1 1 0
5 1 1 1.012457 1.206807 -0.104429 -0.000000 0.000000 0.000000 0.000000 1 1 0
6 1 1 1.012457 1.554612 -0.121616 0.000000 0.000000 0.000000 0.000000 1 1 0
7 1 1 1.012457 1.865878 -0.105087 -0.000000 0.000000 0.000000 0.000000 1 1 0
8 1 1 1.012457 2.171524 -0.088856 0.000000 0.000000 0.000000 0.000000 1 1 0
9 1 1 1.012457 2.441865 -0.040285 0.000000 0.000000 0.000000 0.000000 1 1 0
10 1 1 1.012457 2.875360 -0.110749 0.000000 0.000000 0.000000 0.000000 1 1 0
11 2 1 1.012457 -0.000000 0.500000 0.000000 0.000000 0.000000 0.000000 0 0 0
12 2 1 1.012457 0.161473 0.168764 0.000000 0.000000 0.000000 0.000000 1 1 0
13 2 1 1.012457 0.486671 0.043360 -0.000000 0.000000 0.000000 0.000000 1 1 0
14 2 1 1.012457 0.825165 -0.014891 -0.000000 0.000000 0.000000 0.000000 1 1 0
15 2 1 1.012457 1.158958 -0.072333 -0.000000 0.000000 0.000000 0.000000 1 1 0
16 2 1 1.012457 1.505704 -0.064575 0.000000 0.000000 0.000000 0.000000 1 1 0
17 2 1 1.012457 1.834939 -0.042349 0.000000 0.000000 0.000000 0.000000 1 1 0
18 2 1 1.012457 2.160318 -0.020384 -0.000000 0.000000 0.000000 0.000000 1 1 0
19 2 1 1.012457 2.468677 0.015793 0.000000 0.000000 0.000000 0.000000 1 1 0
20 2 1 1.012457 2.845816 -0.043367 0.000000 0.000000 0.000000 0.000000 1 1 0
ITEM: TIMESTEP
0
ITEM: NUMBER OF ATOMS
20
ITEM: BOX BOUNDS pp pp pp
-10.000000 10.000000 
-10.000000 10.000000 
-10.000000 10.000000 
ITEM: ATOMS id mol type q xu yu zu px py pz
1 1 1 1.012457 0.000000 -0.500000 0.000000 0.000000 0.000000 0.000000 0 0 0
2 1 1 1.012457 0.117659 -0.133500 0.000000 0.000000 0.000000 0.000000 1 1 0
3 1 1 1.012457 0.488038 -0.110041 0.000000 0.000000 0.000000 0.000000 1 1 0
4 1 1 1.012457 0.850991 -0.107250 0.000000 0.000000 0.000000 0.000000 1 1 0
5 1 1 1.012457 1.206624 -0.104516 0.000000 0.000000 0.000000 0.000000 1 1 0
6 1 1 1.012457 1.554804 -0.121628 0.000000 0.000000 0.000000 0.000000 1 1 0
7 1 1 1.012457 1.866494 -0.105048 0.000000 0.000000 0.000000 0.000000 1 1 0
8 1 1 1.012457 2.171712 -0.088812 0.000000 0.000000 0.000000 0.000000 1 1 0
9 1 1 1.012457 2.441687 -0.040283 0.000000 0.000000 0.000000 0.000000 1 1 0
10 1 1 1.012457 2.875445 -0.110730 0.000000 0.000000 0.000000 0.000000 1 1 0
11 2 1 1.012457 0.000000 0.500000 0.000000 0.000000 0.000000 0.000000 0 0 0
12 2 1 1.012457 0.161563 0.168776 0.000000 0.000000 0.000000 0.000000 1 1 0
13 2 1 1.012457 0.486633 0.043376 0.000000 0.000000 0.000000 0.000000 1 1 0
14 2 1 1.012457 0.825348 -0.014893 0.000000 0.000000 0.000000 0.000000 1 1 0
15 2 1 1.012457 1.159014 -0.072294 0.000000 0.000000 0.000000 0.000000 1 1 0
16 2 1 1.012457 1.505639 -0.064500 0.000000 0.000000 0.000000 0.000000 1 1 0
17 2 1 1.012457 1.834581 -0.042318 0.000000 0.000000 0.000000 0.000000 1 1 0
18 2 1 1.012457 2.160285 -0.020355 0.000000 0.000000 0.000000 0.000000 1 1 0
19 2 1 1.012457 2.468678 0.015717 0.000000 0.000000 0.000000 0.000000 1 1 0
20 2 1 1.012457 2.845828 -0.043365 0.000000 0.000000 0.000000 0.000000 1 1 0
ITEM: TIMESTEP
0
ITEM: NUMBER OF ATOMS
20
ITEM: BOX BOUNDS pp pp pp
-10.000000 10.000000 
-10.000000 10.000000 
-10.000000 10.000000 
ITEM: ATOMS id mol type q xu yu zu px py pz
1 1 1 1.012457 0.000000 -0.500000 0.000000 0.000000 0.000000 0.000000 0 0 0
2 1 1 1.012457 0.118431 -0.133657 0.000000 0.000000 0.000000 0.000000 1 1 0
3 1 1 1.012457 0.487385 -0.109977 0.000000 0.000000 0.000000 0.000000 1 1 0
4 1 1 1.012457 0.853740 -0.107319 0.000000 0.000000 0.000000 0.000000 1 1 0
5 1 1 1.012457 1.206153 -0.104763 0.000000 0.000000 0.000000 0.000000 1 1 0
6 1 1 1.012457 1.555320 -0.121667 0.000000 0.000000 0.000000 0.000000 1 1 0
7 1 1 1.012457 1.867191 -0.104994 0.000000 0.000000 0.000000 0.000000 1 1 0
8 1 1 1.012457 2.172255 -0.088684 0.000000 0.000000 0.000000 0.000000 1 1 0
9 1 1 1.012457 2.441158 -0.040271 0.000000 0.000000 0.000000 0.000000 1 1 0
10 1 1 1.012457 2.875704 -0.110676 0.000000 0.000000 0.000000 0.000000 1 1 0
11 2 1 1.012457 0.000000 0.500000 0.000000 0.000000 0.000000 0.000000 0 0 0
12 2 1 1.012457 0.161830 0.168819 0.000000 0.000000 0.000000 0.000000 1 1 0
13 2 1 1.012457 0.486523 0.043419 0.000000 0.000000 0.000000 0.000000 1 1 0
14 2 1 1.012457 0.825548 -0.014843 0.000000 0.000000 0.000000 0.000000 1 1 0
15 2 1 1.012457 1.159185 -0.072180 0.000000 0.000000 0.000000 0.000000 1 1 0
16 2 1 1.012457 1.505444 -0.064281 0.000000 0.000000 0.000000 0.000000 1 1 0
17 2 1 1.012457 1.834703 -0.042148 0.000000 0.000000 0.000000 0.000000 1 1 0
18 2 1 1.012457 2.160186 -0.020269 0.000000 0.000000 0.000000 0.000000 1 1 0
19 2 1 1.012457 2.468677 0.015493 0.000000 0.000000 0.000000 0.000000 1 1 0
20 2 1 1.012457 2.845866 -0.043358 0.000000 0.000000 0.000000 0.000000 1 1 0
ITEM: TIMESTEP
0
ITEM: NUMBER OF ATOMS
20
ITEM: BOX BOUNDS pp pp pp
-10.000000 10.000000 
-10.000000 10.000000 
-10.000000 10.000000 
ITEM: ATOMS id mol type q xu yu zu px py pz
1 1 1 1.012457 0.000000 -0.500000 0.000000 0.000000 0.000000 0.000000 0 0 0
2 1 1 1.012457 0.119436 -0.134263 0.000000 0.000000 0.000000 0.000000 1 1 0
3 1 1 1.012457 0.486657 -0.109695 0.000000 0.000000 0.000000 0.000000 1 1 0
4 1 1 1.012457 0.860918 -0.107313 0.000000 0.000000 0.000000 0.000000 1 1 0
5 1 1 1.012457 1.205727 -0.105118 0.000000 0.000000 0.000000 0.000000 1 1 0
6 1 1 1.012457 1.555895 -0.121757 0.000000 0.000000 0.000000 0.000000 1 1 0
7 1 1 1.012457 1.868227 -0.104916 0.000000 0.000000 0.000000 0.000000 1 1 0
8 1 1 1.012457 2.173027 -0.088481 0.000000 0.000000 0.000000 0.000000 1 1 0
9 1 1 1.012457 2.440332 -0.040241 0.000000 0.000000 0.000000 0.000000 1 1 0
10 1 1 1.012457 2.876142 -0.110592 0.000000 0.000000 0.000000 0.000000 1 1 0
11 2 1 1.012457 0.000000 0.500000 0.000000 0.000000 0.000000 0.000000 0 0 0
12 2 1 1.012457 0.162260 0.168907 0.000000 0.000000 0.000000 0.000000 1 1 0
13 2 1 1.012457 0.486357 0.043480 0.000000 0.000000 0.000000 0.000000 1 1 0
14 2 1 1.012457 0.825929 -0.014777 0.000000 0.000000 0.000000 0.000000 1 1 0
15 2 1 1.012457 1.159481 -0.072002 0.000000 0.000000 0.000000 0.000000 1 1 0
16 2 1 1.012457 1.505114 -0.063929 0.000000 0.000000 0.000000 0.000000 1 1 0
17 2 1 1.012457 1.834909 -0.041874 0.000000 0.000000 0.000000 0.000000 1 1 0
18 2 1 1.012457 2.160027 -0.020132 0.000000 0.000000 0.000000 0.000000 1 1 0
19 2 1 1.012457 2.468665 0.015126 0.000000 0.000000 0.000000 0.000000 1 1 0
20 2 1 1.012457 2.845937 -0.043348 0.000000 0.000000 0.000000 0.000000 1 1 0
ITEM: TIMESTEP
0
ITEM: NUMBER OF ATOMS
20
ITEM: BOX BOUNDS pp pp pp
-10.000000 10.000000 
-10.000000 10.000000 
-10.000000 10.000000 
ITEM: ATOMS id mol type q xu yu zu px py pz
1 1 1 1.012457 0.000000 -0.500000 0.000000 0.000000 0.000000 0.000000 0 0 0
2 1 1 1.012457 0.119946 -0.136154 0.000000 0.000000 0.000000 0.000000 1 1 0
3 1 1 1.012457 0.486790 -0.108778 0.000000 0.000000 0.000000 0.000000 1 1 0
4 1 1 1.012457 0.877772 -0.106971 0.000000 0.000000 0.000000 0.000000 1 1 0
5 1 1 1.012457 1.206298 -0.105452 0.000000 0.000000 0.000000 0.000000 1 1 0
6 1 1 1.012457 1.555734 -0.121967 0.000000 0.000000 0.000000 0.000000 1 1 0
7 1 1 1.012457 1.869227 -0.104851 0.000000 0.000000 0.000000 0.000000 1 1 0
8 1 1 1.012457 2.173594 -0.088233 0.000000 0.000000 0.000000 0.000000 1 1 0
9 1 1 1.012457 2.439452 -0.040166 0.000000 0.000000 0.000000 0.000000 1 1 0
10 1 1 1.012457 2.876725 -0.110486 0.000000 0.000000 0.000000 0.000000 1 1 0
11 2 1 1.012457 0.000000 0.500000 0.000000 0.000000 0.000000 0.000000 0 0 0
12 2 1 1.012457 0.162823 0.169072 0.000000 0.000000 0.000000 0.000000 1 1 0
13 2 1 1.012457 0.486169 0.043538 0.000000 0.000000 0.000000 0.000000 1 1 0
14 2 1 1.012457 0.826585 -0.014723 0.000000 0.000000 0.000000 0.000000 1 1 0
15 2 1 1.012457 1.159927 -0.071773 0.000000 0.000000 0.000000 0.000000 1 1 0
16 2 1 1.012457 1.504633 -0.063460 0.000000 0.000000 0.000000 0.000000 1 1 0
17 2 1 1.012457 1.835181 -0.041508 0.000000 0.000000 0.000000 0.000000 1 1 0
18 2 1 1.012457 2.159814 -0.019949 0.000000 0.000000 0.000000 0.000000 1 1 0
19 2 1 1.012457 2.468627 0.014623 0.000000 0.000000 0.000000 0.000000 1 1 0
20 2 1 1.012457 2.846052 -0.043338 0.000000 0.000000 0.000000 0.000000 1 1 0
ITEM: TIMESTEP
0
ITEM: NUMBER OF ATOMS
20
ITEM: BOX BOUNDS pp pp pp
-10.000000 10.000000 
-10.000000 10.000000 
-10.000000 10.000000 
ITEM: ATOMS id mol type q xu yu zu px py pz
1 1 1 1.012457 0.000000 -0.500000 0.000000 0.000000 0.000000 0.000000 0 0 0
2 1 1 1.012457 0.118174 -0.141302 0.000000 0.000000 0.000000 0.000000 1 1 0
3 1 1 1.012457 0.490068 -0.106243 0.000000 0.000000 0.000000 0.000000 1 1 0
4 1 1 1.012457 0.911834 -0.105803 0.000000 0.000000 0.000000 0.000000 1 1 0
5 1 1 1.012457 1.210212 -0.105491 0.000000 0.000000 0.000000 0.000000 1 1 0
6 1 1 1.012457 1.552836 -0.122487 0.000000 0.000000 0.000000 0.000000 1 1 0
7 1 1 1.012457 1.869222 -0.104889 0.000000 0.000000 0.000000 0.000000 1 1 0
8 1 1 1.012457 2.172760 -0.088007 0.000000 0.000000 0.000000 0.000000 1 1 0
9 1 1 1.012457 2.439252 -0.040002 0.000000 0.000000 0.000000 0.000000 1 1 0
10 1 1 1.012457 2.877295 -0.110371 0.000000 0.000000 0.000000 0.000000 1 1 0
11 2 1 1.012457 0.000000 0.500000 0.000000 0.000000 0.000000 0.000000 0 0 0
12 2 1 1.012457 0.163463 0.169369 0.000000 0.000000 0.000000 0.000000 1 1 0
13 2 1 1.012457 0.486027 0.043558 0.000000 0.000000 0.000000 0.000000 1 1 0
14 2 1 1.012457 0.827700 -0.014726 0.000000 0.000000 0.000000 0.000000 1 1 0
15 2 1 1.012457 1.160581 -0.071509 0.000000 0.000000 0.000000 0.000000 1 1 0
16 2 1 1.012457 1.503962 -0.062893 0.000000 0.000000 0.000000 0.000000 1 1 0
17 2 1 1.012457 1.835454 -0.041066 0.000000 0.000000 0.000000 0.000000 1 1 0
18 2 1 1.012457 2.159537 -0.019727 0.000000 0.000000 0.000000 0.000000 1 1 0
19 2 1 1.012457 2.468557 0.013994 0.000000 0.000000 0.000000 0.000000 1 1 0
20 2 1 1.012457 2.846222 -0.043329 0.000000 0.000000 0.000000 0.000000 1 1 0
ITEM: TIMESTEP
0
ITEM: NUMBER OF ATOMS
20
ITEM: BOX BOUNDS pp pp pp
-10.000000 10.000000 
-10.000000 10.000000 
-10.000000 10.000000 
ITEM: ATOMS id mol type q xu yu zu px py pz
1 1 1 1.012457 0.000000 -0.500000 0.000000 0.000000 0.000000 0.000000 0 0 0
2 1 1 1.012457 0.110335 -0.153738 0.000000 0.000000 0.000000 0.000000 1 1 0
3 1 1 1.012457 0.501234 -0.100089 0.000000 0.000000 0.000000 0.000000 1 1 0
4 1 1 1.012457 0.966622 -0.103070 0.000000 0.000000 0.000000 0.000000 1 1 0
5 1 1 1.012457 1.222267 -0.104708 0.000000 0.000000 0.000000 0.000000 1 1 0
6 1 1 1.012457 1.543074 -0.123707 0.000000 0.000000 0.000000 0.000000 1 1 0
7 1 1 1.012457 1.866150 -0.105213 0.000000 0.000000 0.000000 0.000000 1 1 0
8 1 1 1.012457 2.167952 -0.087936 0.000000 0.000000 0.000000 0.000000 1 1 0
9 1 1 1.012457 2.441399 -0.039678 0.000000 0.000000 0.000000 0.000000 1 1 0
10 1 1 1.012457 2.877436 -0.110262 0.000000 0.000000 0.000000 0.000000 1 1 0
11 2 1 1.012457 0.000000 0.500000 0.000000 0.000000 0.000000 0.000000 0 0 0
12 2 1 1.012457 0.164066 0.169899 0.000000 0.000000 0.000000 0.000000 1 1 0
13 2 1 1.012457 0.486069 0.043480 0.000000 0.000000 0.000000 0.000000 1 1 0
14 2 1 1.012457 0.829648 -0.014861 0.000000 0.000000 0.000000 0.000000 1 1 0
15 2 1 1.012457 1.161573 -0.071224 0.000000 0.000000 0.000000 0.000000 1 1 0
16 2 1 1.012457 1.502998 -0.062243 0.000000 0.000000 0.000000 0.000000 1 1 0
17 2 1 1.012457 1.835587 -0.040564 0.000000 0.000000 0.000000 0.000000 1 1 0
18 2 1 1.012457 2.159146 -0.019475 0.000000 0.000000 0.000000 0.000000 1 1 0
19 2 1 1.012457 2.468479 0.013250 0.000000 0.000000 0.000000 0.000000 1 1 0
20 2 1 1.012457 2.846449 -0.043324 0.000000 0.000000 0.000000 0.000000 1 1 0
ITEM: TIMESTEP
0
ITEM: NUMBER OF ATOMS
20
ITEM: BOX BOUNDS pp pp pp
-10.000000 10.000000 
-10.000000 10.000000 
-10.000000 10.000000 
ITEM: ATOMS id mol type q xu yu zu px py pz
1 1 1 1.012457 0.000000 -0.500000 0.000000 0.000000 0.000000 0.000000 0 0 0
2 1 1 1.012457 0.089853 -0.180202 0.000000 0.000000 0.000000 0.000000 1 1 0
3 1 1 1.012457 0.528262 -0.086978 0.000000 0.000000 0.000000 0.000000 1 1 0
4 1 1 1.012457 1.036064 -0.097753 0.000000 0.000000 0.000000 0.000000 1 1 0
5 1 1 1.012457 1.250318 -0.102299 0.000000 0.000000 0.000000 0.000000 1 1 0
6 1 1 1.012457 1.519721 -0.126268 0.000000 0.000000 0.000000 0.000000 1 1 0
7 1 1 1.012457 1.856456 -0.106096 0.000000 0.000000 0.000000 0.000000 1 1 0
8 1 1 1.012457 2.154869 -0.088220 0.000000 0.000000 0.000000 0.000000 1 1 0
9 1 1 1.012457 2.448811 -0.039115 0.000000 0.000000 0.000000 0.000000 1 1 0
10 1 1 1.012457 2.876322 -0.110162 0.000000 0.000000 0.000000 0.000000 1 1 0
11 2 1 1.012457 0.000000 0.500000 0.000000 0.000000 0.000000 0.000000 0 0 0
12 2 1 1.012457 0.164409 0.170848 0.000000 0.000000 0.000000 0.000000 1 1 0
13 2 1 1.012457 0.486569 0.043200 0.000000 0.000000 0.000000 0.000000 1 1 0
14 2 1 1.012457 0.833230 -0.015259 0.000000 0.000000 0.000000 0.000000 1 1 0
15 2 1 1.012457 1.163176 -0.070899 0.000000 0.000000 0.000000 0.000000 1 1 0
16 2 1 1.012457 1.501507 -0.061532 0.000000 0.000000 0.000000 0.000000 1 1 0
17 2 1 1.012457 1.835548 -0.040007 0.000000 0.000000 0.000000 0.000000 1 1 0
18 2 1 1.012457 2.158496 -0.019198 0.000000 0.000000 0.000000 0.000000 1 1 0
19 2 1 1.012457 2.468489 0.012399 0.000000 0.000000 0.000000 0.000000 1 1 0
20 2 1 1.012457 2.846708 -0.043323 0.000000 0.000000 0.000000 0.000000 1 1 0
ITEM: TIMESTEP
0
ITEM: NUMBER OF ATOMS
20
ITEM: BOX BOUNDS pp pp pp
-10.000000 10.000000 
-10.000000 10.000000 
-10.000000 10.000000 
ITEM: ATOMS id mol type q xu yu zu px py pz
1 1 1 1.012457 0.000000 -0.500000 0.000000 0.000000 0.000000 0.000000 0 0 0
2 1 1 1.012457 0.047306 -0.230178 0.000000 0.000000 0.000000 0.000000 1 1 0
3 1 1 1.012457 0.582021 -0.062116 0.000000 0.000000 0.000000 0.000000 1 1 0
4 1 1 1.012457 1.113056 -0.088015 0.000000 0.000000 0.000000 0.000000 1 1 0
5 1 1 1.012457 1.304938 -0.097373 0.000000 0.000000 0.000000 0.000000 1 1 0
6 1 1 1.012457 1.473819 -0.130957 0.000000 0.000000 0.000000 0.000000 1 1 0
7 1 1 1.012457 1.835151 -0.107808 0.000000 0.000000 0.000000 0.000000 1 1 0
8 1 1 1.012457 2.127692 -0.089067 0.000000 0.000000 0.000000 0.000000 1 1 0
9 1 1 1.012457 2.465725 -0.038305 0.000000 0.000000 0.000000 0.000000 1 1 0
10 1 1 1.012457 2.872572 -0.110035 0.000000 0.000000 0.000000 0.000000 1 1 0
11 2 1 1.012457 0.000000 0.500000 0.000000 0.000000 0.000000 0.000000 0 0 0
12 2 1 1.012457 0.164056 0.172538 0.000000 0.000000 0.000000 0.000000 1 1 0
13 2 1 1.012457 0.488059 0.042576 0.000000 0.000000 0.000000 0.000000 1 1 0
14 2 1 1.012457 0.841087 -0.016090 0.000000 0.000000 0.000000 0.000000 1 1 0
15 2 1 1.012457 1.165939 -0.070074 0.000000 0.000000 0.000000 0.000000 1 1 0
16 2 1 1.012457 1.499035 -0.060973 0.000000 0.000000 0.000000 0.000000 1 1 0
17 2 1 1.012457 1.840187 -0.039187 0.000000 0.000000 0.000000 0.000000 1 1 0
18 2 1 1.012457 2.157319 -0.018935 0.000000 0.000000 0.000000 0.000000 1 1 0
19 2 1 1.012457 2.468761 0.011472 0.000000 0.000000 0.000000 0.000000 1 1 0
20 2 1 1.012457 2.846957 -0.043330 0.000000 0.000000 0.000000 0.000000 1 1 0
