ITEM: TIMESTEP
0
ITEM: NUMBER OF ATOMS
8
ITEM: BOX BOUNDS pp pp pp
-10.000000 10.000000 
-10.000000 10.000000 
-10.000000 10.000000 
ITEM: ATOMS id mol type q xu yu zu
1 1 1 0.00 -1.000000 -0.025000 0.000000
2 1 1 0.00 -0.460000 -0.025000 0.000000
3 1 1 0.00 0.460000 -0.025000 0.000000
4 1 1 0.00 1.000000 -0.025000 0.000000
5 1 1 0.00 -1.000000 0.025000 0.000000
6 1 1 0.00 -0.460000 0.025000 0.000000
7 1 1 0.00 0.460000 0.025000 0.000000
8 1 1 0.00 1.000000 0.025000 0.000000
