ITEM: TIMESTEP
0
ITEM: NUMBER OF ATOMS
4002
ITEM: BOX BOUNDS pp pp pp
-10.000000 10.000000 
-10.000000 10.000000 
-10.000000 10.000000 
ITEM: ATOMS id mol type q xu yu zu
1 1 1 0.00 0.000000 -0.050000 0.000000
2 1 1 0.00 0.001287 -0.050000 0.000000
3 1 1 0.00 0.002573 -0.050000 0.000000
4 1 1 0.00 0.003860 -0.050000 0.000000
5 1 1 0.00 0.005146 -0.049999 0.000000
6 1 1 0.00 0.006433 -0.049999 0.000000
7 1 1 0.00 0.007719 -0.049999 0.000000
8 1 1 0.00 0.009006 -0.049998 0.000000
9 1 1 0.00 0.010293 -0.049998 0.000000
10 1 1 0.00 0.011579 -0.049997 0.000000
11 1 1 0.00 0.012866 -0.049996 0.000000
12 1 1 0.00 0.014152 -0.049996 0.000000
13 1 1 0.00 0.015439 -0.049995 0.000000
14 1 1 0.00 0.016726 -0.049994 0.000000
15 1 1 0.00 0.018012 -0.049993 0.000000
16 1 1 0.00 0.019299 -0.049992 0.000000
17 1 1 0.00 0.020585 -0.049991 0.000000
18 1 1 0.00 0.021872 -0.049990 0.000000
19 1 1 0.00 0.023158 -0.049989 0.000000
20 1 1 0.00 0.024445 -0.049987 0.000000
21 1 1 0.00 0.025732 -0.049986 0.000000
22 1 1 0.00 0.027018 -0.049985 0.000000
23 1 1 0.00 0.028305 -0.049983 0.000000
24 1 1 0.00 0.029591 -0.049981 0.000000
25 1 1 0.00 0.030878 -0.049980 0.000000
26 1 1 0.00 0.032164 -0.049978 0.000000
27 1 1 0.00 0.033451 -0.049976 0.000000
28 1 1 0.00 0.034738 -0.049975 0.000000
29 1 1 0.00 0.036024 -0.049973 0.000000
30 1 1 0.00 0.037311 -0.049971 0.000000
31 1 1 0.00 0.038597 -0.049969 0.000000
32 1 1 0.00 0.039884 -0.049967 0.000000
33 1 1 0.00 0.041171 -0.049964 0.000000
34 1 1 0.00 0.042457 -0.049962 0.000000
35 1 1 0.00 0.043744 -0.049960 0.000000
36 1 1 0.00 0.045030 -0.049957 0.000000
37 1 1 0.00 0.046317 -0.049955 0.000000
38 1 1 0.00 0.047603 -0.049952 0.000000
39 1 1 0.00 0.048890 -0.049950 0.000000
40 1 1 0.00 0.050177 -0.049947 0.000000
41 1 1 0.00 0.051463 -0.049944 0.000000
42 1 1 0.00 0.052750 -0.049942 0.000000
43 1 1 0.00 0.054036 -0.049939 0.000000
44 1 1 0.00 0.055323 -0.049936 0.000000
45 1 1 0.00 0.056609 -0.049933 0.000000
46 1 1 0.00 0.057896 -0.049930 0.000000
47 1 1 0.00 0.059183 -0.049927 0.000000
48 1 1 0.00 0.060469 -0.049924 0.000000
49 1 1 0.00 0.061756 -0.049920 0.000000
50 1 1 0.00 0.063042 -0.049917 0.000000
51 1 1 0.00 0.064329 -0.049914 0.000000
52 1 1 0.00 0.065615 -0.049910 0.000000
53 1 1 0.00 0.066902 -0.049907 0.000000
54 1 1 0.00 0.068189 -0.049903 0.000000
55 1 1 0.00 0.069475 -0.049899 0.000000
56 1 1 0.00 0.070762 -0.049896 0.000000
57 1 1 0.00 0.072048 -0.049892 0.000000
58 1 1 0.00 0.073335 -0.049888 0.000000
59 1 1 0.00 0.074621 -0.049884 0.000000
60 1 1 0.00 0.075908 -0.049880 0.000000
61 1 1 0.00 0.077195 -0.049876 0.000000
62 1 1 0.00 0.078481 -0.049872 0.000000
63 1 1 0.00 0.079768 -0.049868 0.000000
64 1 1 0.00 0.081054 -0.049864 0.000000
65 1 1 0.00 0.082341 -0.049859 0.000000
66 1 1 0.00 0.083627 -0.049855 0.000000
67 1 1 0.00 0.084914 -0.049851 0.000000
68 1 1 0.00 0.086201 -0.049846 0.000000
69 1 1 0.00 0.087487 -0.049842 0.000000
70 1 1 0.00 0.088774 -0.049837 0.000000
71 1 1 0.00 0.090060 -0.049832 0.000000
72 1 1 0.00 0.091347 -0.049827 0.000000
73 1 1 0.00 0.092633 -0.049823 0.000000
74 1 1 0.00 0.093920 -0.049818 0.000000
75 1 1 0.00 0.095207 -0.049813 0.000000
76 1 1 0.00 0.096493 -0.049808 0.000000
77 1 1 0.00 0.097780 -0.049803 0.000000
78 1 1 0.00 0.099066 -0.049798 0.000000
79 1 1 0.00 0.100353 -0.049792 0.000000
80 1 1 0.00 0.101639 -0.049787 0.000000
81 1 1 0.00 0.102926 -0.049782 0.000000
82 1 1 0.00 0.104213 -0.049776 0.000000
83 1 1 0.00 0.105499 -0.049771 0.000000
84 1 1 0.00 0.106786 -0.049766 0.000000
85 1 1 0.00 0.108072 -0.049760 0.000000
86 1 1 0.00 0.109359 -0.049754 0.000000
87 1 1 0.00 0.110645 -0.049749 0.000000
88 1 1 0.00 0.111932 -0.049743 0.000000
89 1 1 0.00 0.113219 -0.049737 0.000000
90 1 1 0.00 0.114505 -0.049731 0.000000
91 1 1 0.00 0.115792 -0.049725 0.000000
92 1 1 0.00 0.117078 -0.049719 0.000000
93 1 1 0.00 0.118365 -0.049713 0.000000
94 1 1 0.00 0.119651 -0.049707 0.000000
95 1 1 0.00 0.120938 -0.049701 0.000000
96 1 1 0.00 0.122225 -0.049695 0.000000
97 1 1 0.00 0.123511 -0.049688 0.000000
98 1 1 0.00 0.124798 -0.049682 0.000000
99 1 1 0.00 0.126084 -0.049676 0.000000
100 1 1 0.00 0.127371 -0.049669 0.000000
101 1 1 0.00 0.128657 -0.049662 0.000000
102 1 1 0.00 0.129944 -0.049656 0.000000
103 1 1 0.00 0.131230 -0.049649 0.000000
104 1 1 0.00 0.132517 -0.049642 0.000000
105 1 1 0.00 0.133804 -0.049636 0.000000
106 1 1 0.00 0.135090 -0.049629 0.000000
107 1 1 0.00 0.136377 -0.049622 0.000000
108 1 1 0.00 0.137663 -0.049615 0.000000
109 1 1 0.00 0.138950 -0.049608 0.000000
110 1 1 0.00 0.140236 -0.049601 0.000000
111 1 1 0.00 0.141523 -0.049594 0.000000
112 1 1 0.00 0.142809 -0.049586 0.000000
113 1 1 0.00 0.144096 -0.049579 0.000000
114 1 1 0.00 0.145383 -0.049572 0.000000
115 1 1 0.00 0.146669 -0.049564 0.000000
116 1 1 0.00 0.147956 -0.049557 0.000000
117 1 1 0.00 0.149242 -0.049549 0.000000
118 1 1 0.00 0.150529 -0.049542 0.000000
119 1 1 0.00 0.151815 -0.049534 0.000000
120 1 1 0.00 0.153102 -0.049527 0.000000
121 1 1 0.00 0.154389 -0.049519 0.000000
122 1 1 0.00 0.155675 -0.049511 0.000000
123 1 1 0.00 0.156962 -0.049503 0.000000
124 1 1 0.00 0.158248 -0.049495 0.000000
125 1 1 0.00 0.159535 -0.049487 0.000000
126 1 1 0.00 0.160821 -0.049479 0.000000
127 1 1 0.00 0.162108 -0.049471 0.000000
128 1 1 0.00 0.163394 -0.049463 0.000000
129 1 1 0.00 0.164681 -0.049455 0.000000
130 1 1 0.00 0.165967 -0.049446 0.000000
131 1 1 0.00 0.167254 -0.049438 0.000000
132 1 1 0.00 0.168541 -0.049430 0.000000
133 1 1 0.00 0.169827 -0.049421 0.000000
134 1 1 0.00 0.171114 -0.049413 0.000000
135 1 1 0.00 0.172400 -0.049404 0.000000
136 1 1 0.00 0.173687 -0.049396 0.000000
137 1 1 0.00 0.174973 -0.049387 0.000000
138 1 1 0.00 0.176260 -0.049378 0.000000
139 1 1 0.00 0.177546 -0.049370 0.000000
140 1 1 0.00 0.178833 -0.049361 0.000000
141 1 1 0.00 0.180120 -0.049352 0.000000
142 1 1 0.00 0.181406 -0.049343 0.000000
143 1 1 0.00 0.182693 -0.049334 0.000000
144 1 1 0.00 0.183979 -0.049325 0.000000
145 1 1 0.00 0.185266 -0.049316 0.000000
146 1 1 0.00 0.186552 -0.049307 0.000000
147 1 1 0.00 0.187839 -0.049297 0.000000
148 1 1 0.00 0.189125 -0.049288 0.000000
149 1 1 0.00 0.190412 -0.049279 0.000000
150 1 1 0.00 0.191698 -0.049269 0.000000
151 1 1 0.00 0.192985 -0.049260 0.000000
152 1 1 0.00 0.194272 -0.049250 0.000000
153 1 1 0.00 0.195558 -0.049241 0.000000
154 1 1 0.00 0.196845 -0.049231 0.000000
155 1 1 0.00 0.198131 -0.049222 0.000000
156 1 1 0.00 0.199418 -0.049212 0.000000
157 1 1 0.00 0.200704 -0.049202 0.000000
158 1 1 0.00 0.201991 -0.049192 0.000000
159 1 1 0.00 0.203277 -0.049182 0.000000
160 1 1 0.00 0.204564 -0.049172 0.000000
161 1 1 0.00 0.205850 -0.049162 0.000000
162 1 1 0.00 0.207137 -0.049152 0.000000
163 1 1 0.00 0.208424 -0.049142 0.000000
164 1 1 0.00 0.209710 -0.049132 0.000000
165 1 1 0.00 0.210997 -0.049122 0.000000
166 1 1 0.00 0.212283 -0.049112 0.000000
167 1 1 0.00 0.213570 -0.049101 0.000000
168 1 1 0.00 0.214856 -0.049091 0.000000
169 1 1 0.00 0.216143 -0.049081 0.000000
170 1 1 0.00 0.217429 -0.049070 0.000000
171 1 1 0.00 0.218716 -0.049060 0.000000
172 1 1 0.00 0.220002 -0.049049 0.000000
173 1 1 0.00 0.221289 -0.049039 0.000000
174 1 1 0.00 0.222575 -0.049028 0.000000
175 1 1 0.00 0.223862 -0.049017 0.000000
176 1 1 0.00 0.225148 -0.049006 0.000000
177 1 1 0.00 0.226435 -0.048996 0.000000
178 1 1 0.00 0.227722 -0.048985 0.000000
179 1 1 0.00 0.229008 -0.048974 0.000000
180 1 1 0.00 0.230295 -0.048963 0.000000
181 1 1 0.00 0.231581 -0.048952 0.000000
182 1 1 0.00 0.232868 -0.048941 0.000000
183 1 1 0.00 0.234154 -0.048930 0.000000
184 1 1 0.00 0.235441 -0.048918 0.000000
185 1 1 0.00 0.236727 -0.048907 0.000000
186 1 1 0.00 0.238014 -0.048896 0.000000
187 1 1 0.00 0.239300 -0.048885 0.000000
188 1 1 0.00 0.240587 -0.048873 0.000000
189 1 1 0.00 0.241873 -0.048862 0.000000
190 1 1 0.00 0.243160 -0.048850 0.000000
191 1 1 0.00 0.244446 -0.048839 0.000000
192 1 1 0.00 0.245733 -0.048827 0.000000
193 1 1 0.00 0.247019 -0.048816 0.000000
194 1 1 0.00 0.248306 -0.048804 0.000000
195 1 1 0.00 0.249593 -0.048792 0.000000
196 1 1 0.00 0.250879 -0.048780 0.000000
197 1 1 0.00 0.252166 -0.048769 0.000000
198 1 1 0.00 0.253452 -0.048757 0.000000
199 1 1 0.00 0.254739 -0.048745 0.000000
200 1 1 0.00 0.256025 -0.048733 0.000000
201 1 1 0.00 0.257312 -0.048721 0.000000
202 1 1 0.00 0.258598 -0.048709 0.000000
203 1 1 0.00 0.259885 -0.048697 0.000000
204 1 1 0.00 0.261171 -0.048685 0.000000
205 1 1 0.00 0.262458 -0.048672 0.000000
206 1 1 0.00 0.263744 -0.048660 0.000000
207 1 1 0.00 0.265031 -0.048648 0.000000
208 1 1 0.00 0.266317 -0.048636 0.000000
209 1 1 0.00 0.267604 -0.048623 0.000000
210 1 1 0.00 0.268890 -0.048611 0.000000
211 1 1 0.00 0.270177 -0.048598 0.000000
212 1 1 0.00 0.271463 -0.048586 0.000000
213 1 1 0.00 0.272750 -0.048573 0.000000
214 1 1 0.00 0.274036 -0.048560 0.000000
215 1 1 0.00 0.275323 -0.048548 0.000000
216 1 1 0.00 0.276609 -0.048535 0.000000
217 1 1 0.00 0.277896 -0.048522 0.000000
218 1 1 0.00 0.279183 -0.048510 0.000000
219 1 1 0.00 0.280469 -0.048497 0.000000
220 1 1 0.00 0.281756 -0.048484 0.000000
221 1 1 0.00 0.283042 -0.048471 0.000000
222 1 1 0.00 0.284329 -0.048458 0.000000
223 1 1 0.00 0.285615 -0.048445 0.000000
224 1 1 0.00 0.286902 -0.048432 0.000000
225 1 1 0.00 0.288188 -0.048419 0.000000
226 1 1 0.00 0.289475 -0.048405 0.000000
227 1 1 0.00 0.290761 -0.048392 0.000000
228 1 1 0.00 0.292048 -0.048379 0.000000
229 1 1 0.00 0.293334 -0.048366 0.000000
230 1 1 0.00 0.294621 -0.048352 0.000000
231 1 1 0.00 0.295907 -0.048339 0.000000
232 1 1 0.00 0.297194 -0.048326 0.000000
233 1 1 0.00 0.298480 -0.048312 0.000000
234 1 1 0.00 0.299767 -0.048299 0.000000
235 1 1 0.00 0.301053 -0.048285 0.000000
236 1 1 0.00 0.302340 -0.048271 0.000000
237 1 1 0.00 0.303626 -0.048258 0.000000
238 1 1 0.00 0.304913 -0.048244 0.000000
239 1 1 0.00 0.306199 -0.048230 0.000000
240 1 1 0.00 0.307486 -0.048217 0.000000
241 1 1 0.00 0.308772 -0.048203 0.000000
242 1 1 0.00 0.310059 -0.048189 0.000000
243 1 1 0.00 0.311345 -0.048175 0.000000
244 1 1 0.00 0.312632 -0.048161 0.000000
245 1 1 0.00 0.313918 -0.048147 0.000000
246 1 1 0.00 0.315205 -0.048133 0.000000
247 1 1 0.00 0.316491 -0.048119 0.000000
248 1 1 0.00 0.317778 -0.048105 0.000000
249 1 1 0.00 0.319064 -0.048091 0.000000
250 1 1 0.00 0.320351 -0.048077 0.000000
251 1 1 0.00 0.321637 -0.048063 0.000000
252 1 1 0.00 0.322924 -0.048048 0.000000
253 1 1 0.00 0.324210 -0.048034 0.000000
254 1 1 0.00 0.325497 -0.048020 0.000000
255 1 1 0.00 0.326783 -0.048005 0.000000
256 1 1 0.00 0.328070 -0.047991 0.000000
257 1 1 0.00 0.329356 -0.047976 0.000000
258 1 1 0.00 0.330643 -0.047962 0.000000
259 1 1 0.00 0.331929 -0.047947 0.000000
260 1 1 0.00 0.333216 -0.047933 0.000000
261 1 1 0.00 0.334502 -0.047918 0.000000
262 1 1 0.00 0.335789 -0.047903 0.000000
263 1 1 0.00 0.337075 -0.047889 0.000000
264 1 1 0.00 0.338362 -0.047874 0.000000
265 1 1 0.00 0.339648 -0.047859 0.000000
266 1 1 0.00 0.340935 -0.047845 0.000000
267 1 1 0.00 0.342221 -0.047830 0.000000
268 1 1 0.00 0.343508 -0.047815 0.000000
269 1 1 0.00 0.344794 -0.047800 0.000000
270 1 1 0.00 0.346081 -0.047785 0.000000
271 1 1 0.00 0.347367 -0.047770 0.000000
272 1 1 0.00 0.348654 -0.047755 0.000000
273 1 1 0.00 0.349940 -0.047740 0.000000
274 1 1 0.00 0.351227 -0.047725 0.000000
275 1 1 0.00 0.352513 -0.047710 0.000000
276 1 1 0.00 0.353800 -0.047694 0.000000
277 1 1 0.00 0.355086 -0.047679 0.000000
278 1 1 0.00 0.356373 -0.047664 0.000000
279 1 1 0.00 0.357659 -0.047649 0.000000
280 1 1 0.00 0.358946 -0.047633 0.000000
281 1 1 0.00 0.360232 -0.047618 0.000000
282 1 1 0.00 0.361519 -0.047603 0.000000
283 1 1 0.00 0.362805 -0.047587 0.000000
284 1 1 0.00 0.364092 -0.047572 0.000000
285 1 1 0.00 0.365378 -0.047556 0.000000
286 1 1 0.00 0.366665 -0.047541 0.000000
287 1 1 0.00 0.367951 -0.047525 0.000000
288 1 1 0.00 0.369237 -0.047510 0.000000
289 1 1 0.00 0.370524 -0.047494 0.000000
290 1 1 0.00 0.371810 -0.047478 0.000000
291 1 1 0.00 0.373097 -0.047463 0.000000
292 1 1 0.00 0.374383 -0.047447 0.000000
293 1 1 0.00 0.375670 -0.047431 0.000000
294 1 1 0.00 0.376956 -0.047415 0.000000
295 1 1 0.00 0.378243 -0.047400 0.000000
296 1 1 0.00 0.379529 -0.047384 0.000000
297 1 1 0.00 0.380816 -0.047368 0.000000
298 1 1 0.00 0.382102 -0.047352 0.000000
299 1 1 0.00 0.383389 -0.047336 0.000000
300 1 1 0.00 0.384675 -0.047320 0.000000
301 1 1 0.00 0.385962 -0.047304 0.000000
302 1 1 0.00 0.387248 -0.047288 0.000000
303 1 1 0.00 0.388535 -0.047272 0.000000
304 1 1 0.00 0.389821 -0.047256 0.000000
305 1 1 0.00 0.391108 -0.047239 0.000000
306 1 1 0.00 0.392394 -0.047223 0.000000
307 1 1 0.00 0.393681 -0.047207 0.000000
308 1 1 0.00 0.394967 -0.047191 0.000000
309 1 1 0.00 0.396254 -0.047175 0.000000
310 1 1 0.00 0.397540 -0.047158 0.000000
311 1 1 0.00 0.398827 -0.047142 0.000000
312 1 1 0.00 0.400113 -0.047126 0.000000
313 1 1 0.00 0.401399 -0.047109 0.000000
314 1 1 0.00 0.402686 -0.047093 0.000000
315 1 1 0.00 0.403972 -0.047076 0.000000
316 1 1 0.00 0.405259 -0.047060 0.000000
317 1 1 0.00 0.406545 -0.047043 0.000000
318 1 1 0.00 0.407832 -0.047027 0.000000
319 1 1 0.00 0.409118 -0.047010 0.000000
320 1 1 0.00 0.410405 -0.046994 0.000000
321 1 1 0.00 0.411691 -0.046977 0.000000
322 1 1 0.00 0.412978 -0.046960 0.000000
323 1 1 0.00 0.414264 -0.046944 0.000000
324 1 1 0.00 0.415551 -0.046927 0.000000
325 1 1 0.00 0.416837 -0.046910 0.000000
326 1 1 0.00 0.418124 -0.046894 0.000000
327 1 1 0.00 0.419410 -0.046877 0.000000
328 1 1 0.00 0.420697 -0.046860 0.000000
329 1 1 0.00 0.421983 -0.046843 0.000000
330 1 1 0.00 0.423269 -0.046826 0.000000
331 1 1 0.00 0.424556 -0.046809 0.000000
332 1 1 0.00 0.425842 -0.046793 0.000000
333 1 1 0.00 0.427129 -0.046776 0.000000
334 1 1 0.00 0.428415 -0.046759 0.000000
335 1 1 0.00 0.429702 -0.046742 0.000000
336 1 1 0.00 0.430988 -0.046725 0.000000
337 1 1 0.00 0.432275 -0.046708 0.000000
338 1 1 0.00 0.433561 -0.046691 0.000000
339 1 1 0.00 0.434848 -0.046673 0.000000
340 1 1 0.00 0.436134 -0.046656 0.000000
341 1 1 0.00 0.437421 -0.046639 0.000000
342 1 1 0.00 0.438707 -0.046622 0.000000
343 1 1 0.00 0.439994 -0.046605 0.000000
344 1 1 0.00 0.441280 -0.046588 0.000000
345 1 1 0.00 0.442566 -0.046570 0.000000
346 1 1 0.00 0.443853 -0.046553 0.000000
347 1 1 0.00 0.445139 -0.046536 0.000000
348 1 1 0.00 0.446426 -0.046519 0.000000
349 1 1 0.00 0.447712 -0.046501 0.000000
350 1 1 0.00 0.448999 -0.046484 0.000000
351 1 1 0.00 0.450285 -0.046467 0.000000
352 1 1 0.00 0.451572 -0.046449 0.000000
353 1 1 0.00 0.452858 -0.046432 0.000000
354 1 1 0.00 0.454145 -0.046414 0.000000
355 1 1 0.00 0.455431 -0.046397 0.000000
356 1 1 0.00 0.456718 -0.046379 0.000000
357 1 1 0.00 0.458004 -0.046362 0.000000
358 1 1 0.00 0.459290 -0.046344 0.000000
359 1 1 0.00 0.460577 -0.046327 0.000000
360 1 1 0.00 0.461863 -0.046309 0.000000
361 1 1 0.00 0.463150 -0.046292 0.000000
362 1 1 0.00 0.464436 -0.046274 0.000000
363 1 1 0.00 0.465723 -0.046257 0.000000
364 1 1 0.00 0.467009 -0.046239 0.000000
365 1 1 0.00 0.468296 -0.046221 0.000000
366 1 1 0.00 0.469582 -0.046204 0.000000
367 1 1 0.00 0.470869 -0.046186 0.000000
368 1 1 0.00 0.472155 -0.046168 0.000000
369 1 1 0.00 0.473442 -0.046150 0.000000
370 1 1 0.00 0.474728 -0.046133 0.000000
371 1 1 0.00 0.476014 -0.046115 0.000000
372 1 1 0.00 0.477301 -0.046097 0.000000
373 1 1 0.00 0.478587 -0.046079 0.000000
374 1 1 0.00 0.479874 -0.046062 0.000000
375 1 1 0.00 0.481160 -0.046044 0.000000
376 1 1 0.00 0.482447 -0.046026 0.000000
377 1 1 0.00 0.483733 -0.046008 0.000000
378 1 1 0.00 0.485020 -0.045990 0.000000
379 1 1 0.00 0.486306 -0.045972 0.000000
380 1 1 0.00 0.487593 -0.045954 0.000000
381 1 1 0.00 0.488879 -0.045936 0.000000
382 1 1 0.00 0.490165 -0.045918 0.000000
383 1 1 0.00 0.491452 -0.045900 0.000000
384 1 1 0.00 0.492738 -0.045883 0.000000
385 1 1 0.00 0.494025 -0.045865 0.000000
386 1 1 0.00 0.495311 -0.045847 0.000000
387 1 1 0.00 0.496598 -0.045828 0.000000
388 1 1 0.00 0.497884 -0.045810 0.000000
389 1 1 0.00 0.499171 -0.045792 0.000000
390 1 1 0.00 0.500457 -0.045774 0.000000
391 1 1 0.00 0.501743 -0.045756 0.000000
392 1 1 0.00 0.503030 -0.045738 0.000000
393 1 1 0.00 0.504316 -0.045720 0.000000
394 1 1 0.00 0.505603 -0.045702 0.000000
395 1 1 0.00 0.506889 -0.045684 0.000000
396 1 1 0.00 0.508176 -0.045666 0.000000
397 1 1 0.00 0.509462 -0.045648 0.000000
398 1 1 0.00 0.510749 -0.045629 0.000000
399 1 1 0.00 0.512035 -0.045611 0.000000
400 1 1 0.00 0.513322 -0.045593 0.000000
401 1 1 0.00 0.514608 -0.045575 0.000000
402 1 1 0.00 0.515894 -0.045557 0.000000
403 1 1 0.00 0.517181 -0.045538 0.000000
404 1 1 0.00 0.518467 -0.045520 0.000000
405 1 1 0.00 0.519754 -0.045502 0.000000
406 1 1 0.00 0.521040 -0.045484 0.000000
407 1 1 0.00 0.522327 -0.045465 0.000000
408 1 1 0.00 0.523613 -0.045447 0.000000
409 1 1 0.00 0.524900 -0.045429 0.000000
410 1 1 0.00 0.526186 -0.045411 0.000000
411 1 1 0.00 0.527473 -0.045392 0.000000
412 1 1 0.00 0.528759 -0.045374 0.000000
413 1 1 0.00 0.530045 -0.045356 0.000000
414 1 1 0.00 0.531332 -0.045337 0.000000
415 1 1 0.00 0.532618 -0.045319 0.000000
416 1 1 0.00 0.533905 -0.045301 0.000000
417 1 1 0.00 0.535191 -0.045282 0.000000
418 1 1 0.00 0.536478 -0.045264 0.000000
419 1 1 0.00 0.537764 -0.045246 0.000000
420 1 1 0.00 0.539051 -0.045227 0.000000
421 1 1 0.00 0.540337 -0.045209 0.000000
422 1 1 0.00 0.541623 -0.045191 0.000000
423 1 1 0.00 0.542910 -0.045172 0.000000
424 1 1 0.00 0.544196 -0.045154 0.000000
425 1 1 0.00 0.545483 -0.045135 0.000000
426 1 1 0.00 0.546769 -0.045117 0.000000
427 1 1 0.00 0.548056 -0.045099 0.000000
428 1 1 0.00 0.549342 -0.045080 0.000000
429 1 1 0.00 0.550629 -0.045062 0.000000
430 1 1 0.00 0.551915 -0.045043 0.000000
431 1 1 0.00 0.553201 -0.045025 0.000000
432 1 1 0.00 0.554488 -0.045007 0.000000
433 1 1 0.00 0.555774 -0.044988 0.000000
434 1 1 0.00 0.557061 -0.044970 0.000000
435 1 1 0.00 0.558347 -0.044951 0.000000
436 1 1 0.00 0.559634 -0.044933 0.000000
437 1 1 0.00 0.560920 -0.044914 0.000000
438 1 1 0.00 0.562207 -0.044896 0.000000
439 1 1 0.00 0.563493 -0.044877 0.000000
440 1 1 0.00 0.564779 -0.044859 0.000000
441 1 1 0.00 0.566066 -0.044841 0.000000
442 1 1 0.00 0.567352 -0.044822 0.000000
443 1 1 0.00 0.568639 -0.044804 0.000000
444 1 1 0.00 0.569925 -0.044785 0.000000
445 1 1 0.00 0.571212 -0.044767 0.000000
446 1 1 0.00 0.572498 -0.044748 0.000000
447 1 1 0.00 0.573785 -0.044730 0.000000
448 1 1 0.00 0.575071 -0.044711 0.000000
449 1 1 0.00 0.576358 -0.044693 0.000000
450 1 1 0.00 0.577644 -0.044675 0.000000
451 1 1 0.00 0.578930 -0.044656 0.000000
452 1 1 0.00 0.580217 -0.044638 0.000000
453 1 1 0.00 0.581503 -0.044619 0.000000
454 1 1 0.00 0.582790 -0.044601 0.000000
455 1 1 0.00 0.584076 -0.044582 0.000000
456 1 1 0.00 0.585363 -0.044564 0.000000
457 1 1 0.00 0.586649 -0.044545 0.000000
458 1 1 0.00 0.587936 -0.044527 0.000000
459 1 1 0.00 0.589222 -0.044509 0.000000
460 1 1 0.00 0.590508 -0.044490 0.000000
461 1 1 0.00 0.591795 -0.044472 0.000000
462 1 1 0.00 0.593081 -0.044453 0.000000
463 1 1 0.00 0.594368 -0.044435 0.000000
464 1 1 0.00 0.595654 -0.044416 0.000000
465 1 1 0.00 0.596941 -0.044398 0.000000
466 1 1 0.00 0.598227 -0.044380 0.000000
467 1 1 0.00 0.599514 -0.044361 0.000000
468 1 1 0.00 0.600800 -0.044343 0.000000
469 1 1 0.00 0.602086 -0.044324 0.000000
470 1 1 0.00 0.603373 -0.044306 0.000000
471 1 1 0.00 0.604659 -0.044288 0.000000
472 1 1 0.00 0.605946 -0.044269 0.000000
473 1 1 0.00 0.607232 -0.044251 0.000000
474 1 1 0.00 0.608519 -0.044233 0.000000
475 1 1 0.00 0.609805 -0.044214 0.000000
476 1 1 0.00 0.611092 -0.044196 0.000000
477 1 1 0.00 0.612378 -0.044178 0.000000
478 1 1 0.00 0.613664 -0.044159 0.000000
479 1 1 0.00 0.614951 -0.044141 0.000000
480 1 1 0.00 0.616237 -0.044123 0.000000
481 1 1 0.00 0.617524 -0.044104 0.000000
482 1 1 0.00 0.618810 -0.044086 0.000000
483 1 1 0.00 0.620097 -0.044068 0.000000
484 1 1 0.00 0.621383 -0.044050 0.000000
485 1 1 0.00 0.622670 -0.044031 0.000000
486 1 1 0.00 0.623956 -0.044013 0.000000
487 1 1 0.00 0.625243 -0.043995 0.000000
488 1 1 0.00 0.626529 -0.043977 0.000000
489 1 1 0.00 0.627815 -0.043958 0.000000
490 1 1 0.00 0.629102 -0.043940 0.000000
491 1 1 0.00 0.630388 -0.043922 0.000000
492 1 1 0.00 0.631675 -0.043904 0.000000
493 1 1 0.00 0.632961 -0.043886 0.000000
494 1 1 0.00 0.634248 -0.043868 0.000000
495 1 1 0.00 0.635534 -0.043849 0.000000
496 1 1 0.00 0.636821 -0.043831 0.000000
497 1 1 0.00 0.638107 -0.043813 0.000000
498 1 1 0.00 0.639393 -0.043795 0.000000
499 1 1 0.00 0.640680 -0.043777 0.000000
500 1 1 0.00 0.641966 -0.043759 0.000000
501 1 1 0.00 0.643253 -0.043741 0.000000
502 1 1 0.00 0.644539 -0.043723 0.000000
503 1 1 0.00 0.645826 -0.043705 0.000000
504 1 1 0.00 0.647112 -0.043687 0.000000
505 1 1 0.00 0.648399 -0.043669 0.000000
506 1 1 0.00 0.649685 -0.043651 0.000000
507 1 1 0.00 0.650972 -0.043633 0.000000
508 1 1 0.00 0.652258 -0.043615 0.000000
509 1 1 0.00 0.653544 -0.043597 0.000000
510 1 1 0.00 0.654831 -0.043579 0.000000
511 1 1 0.00 0.656117 -0.043561 0.000000
512 1 1 0.00 0.657404 -0.043543 0.000000
513 1 1 0.00 0.658690 -0.043525 0.000000
514 1 1 0.00 0.659977 -0.043508 0.000000
515 1 1 0.00 0.661263 -0.043490 0.000000
516 1 1 0.00 0.662550 -0.043472 0.000000
517 1 1 0.00 0.663836 -0.043454 0.000000
518 1 1 0.00 0.665123 -0.043436 0.000000
519 1 1 0.00 0.666409 -0.043419 0.000000
520 1 1 0.00 0.667695 -0.043401 0.000000
521 1 1 0.00 0.668982 -0.043383 0.000000
522 1 1 0.00 0.670268 -0.043366 0.000000
523 1 1 0.00 0.671555 -0.043348 0.000000
524 1 1 0.00 0.672841 -0.043330 0.000000
525 1 1 0.00 0.674128 -0.043313 0.000000
526 1 1 0.00 0.675414 -0.043295 0.000000
527 1 1 0.00 0.676701 -0.043278 0.000000
528 1 1 0.00 0.677987 -0.043260 0.000000
529 1 1 0.00 0.679274 -0.043242 0.000000
530 1 1 0.00 0.680560 -0.043225 0.000000
531 1 1 0.00 0.681847 -0.043208 0.000000
532 1 1 0.00 0.683133 -0.043190 0.000000
533 1 1 0.00 0.684419 -0.043173 0.000000
534 1 1 0.00 0.685706 -0.043155 0.000000
535 1 1 0.00 0.686992 -0.043138 0.000000
536 1 1 0.00 0.688279 -0.043120 0.000000
537 1 1 0.00 0.689565 -0.043103 0.000000
538 1 1 0.00 0.690852 -0.043086 0.000000
539 1 1 0.00 0.692138 -0.043069 0.000000
540 1 1 0.00 0.693425 -0.043051 0.000000
541 1 1 0.00 0.694711 -0.043034 0.000000
542 1 1 0.00 0.695998 -0.043017 0.000000
543 1 1 0.00 0.697284 -0.043000 0.000000
544 1 1 0.00 0.698571 -0.042983 0.000000
545 1 1 0.00 0.699857 -0.042966 0.000000
546 1 1 0.00 0.701143 -0.042948 0.000000
547 1 1 0.00 0.702430 -0.042931 0.000000
548 1 1 0.00 0.703716 -0.042914 0.000000
549 1 1 0.00 0.705003 -0.042897 0.000000
550 1 1 0.00 0.706289 -0.042880 0.000000
551 1 1 0.00 0.707576 -0.042863 0.000000
552 1 1 0.00 0.708862 -0.042847 0.000000
553 1 1 0.00 0.710149 -0.042830 0.000000
554 1 1 0.00 0.711435 -0.042813 0.000000
555 1 1 0.00 0.712722 -0.042796 0.000000
556 1 1 0.00 0.714008 -0.042779 0.000000
557 1 1 0.00 0.715295 -0.042763 0.000000
558 1 1 0.00 0.716581 -0.042746 0.000000
559 1 1 0.00 0.717868 -0.042729 0.000000
560 1 1 0.00 0.719154 -0.042712 0.000000
561 1 1 0.00 0.720441 -0.042696 0.000000
562 1 1 0.00 0.721727 -0.042679 0.000000
563 1 1 0.00 0.723013 -0.042663 0.000000
564 1 1 0.00 0.724300 -0.042646 0.000000
565 1 1 0.00 0.725586 -0.042630 0.000000
566 1 1 0.00 0.726873 -0.042613 0.000000
567 1 1 0.00 0.728159 -0.042597 0.000000
568 1 1 0.00 0.729446 -0.042581 0.000000
569 1 1 0.00 0.730732 -0.042564 0.000000
570 1 1 0.00 0.732019 -0.042548 0.000000
571 1 1 0.00 0.733305 -0.042532 0.000000
572 1 1 0.00 0.734592 -0.042515 0.000000
573 1 1 0.00 0.735878 -0.042499 0.000000
574 1 1 0.00 0.737165 -0.042483 0.000000
575 1 1 0.00 0.738451 -0.042467 0.000000
576 1 1 0.00 0.739738 -0.042451 0.000000
577 1 1 0.00 0.741024 -0.042435 0.000000
578 1 1 0.00 0.742311 -0.042419 0.000000
579 1 1 0.00 0.743597 -0.042403 0.000000
580 1 1 0.00 0.744884 -0.042387 0.000000
581 1 1 0.00 0.746170 -0.042371 0.000000
582 1 1 0.00 0.747457 -0.042355 0.000000
583 1 1 0.00 0.748743 -0.042339 0.000000
584 1 1 0.00 0.750029 -0.042324 0.000000
585 1 1 0.00 0.751316 -0.042308 0.000000
586 1 1 0.00 0.752602 -0.042292 0.000000
587 1 1 0.00 0.753889 -0.042277 0.000000
588 1 1 0.00 0.755175 -0.042261 0.000000
589 1 1 0.00 0.756462 -0.042246 0.000000
590 1 1 0.00 0.757748 -0.042230 0.000000
591 1 1 0.00 0.759035 -0.042215 0.000000
592 1 1 0.00 0.760321 -0.042199 0.000000
593 1 1 0.00 0.761608 -0.042184 0.000000
594 1 1 0.00 0.762894 -0.042169 0.000000
595 1 1 0.00 0.764181 -0.042153 0.000000
596 1 1 0.00 0.765467 -0.042138 0.000000
597 1 1 0.00 0.766754 -0.042123 0.000000
598 1 1 0.00 0.768040 -0.042108 0.000000
599 1 1 0.00 0.769327 -0.042093 0.000000
600 1 1 0.00 0.770613 -0.042078 0.000000
601 1 1 0.00 0.771900 -0.042063 0.000000
602 1 1 0.00 0.773186 -0.042048 0.000000
603 1 1 0.00 0.774473 -0.042033 0.000000
604 1 1 0.00 0.775759 -0.042018 0.000000
605 1 1 0.00 0.777046 -0.042003 0.000000
606 1 1 0.00 0.778332 -0.041988 0.000000
607 1 1 0.00 0.779619 -0.041974 0.000000
608 1 1 0.00 0.780905 -0.041959 0.000000
609 1 1 0.00 0.782192 -0.041944 0.000000
610 1 1 0.00 0.783478 -0.041930 0.000000
611 1 1 0.00 0.784765 -0.041915 0.000000
612 1 1 0.00 0.786051 -0.041901 0.000000
613 1 1 0.00 0.787338 -0.041886 0.000000
614 1 1 0.00 0.788624 -0.041872 0.000000
615 1 1 0.00 0.789911 -0.041858 0.000000
616 1 1 0.00 0.791197 -0.041844 0.000000
617 1 1 0.00 0.792484 -0.041829 0.000000
618 1 1 0.00 0.793770 -0.041815 0.000000
619 1 1 0.00 0.795057 -0.041801 0.000000
620 1 1 0.00 0.796343 -0.041787 0.000000
621 1 1 0.00 0.797630 -0.041773 0.000000
622 1 1 0.00 0.798916 -0.041759 0.000000
623 1 1 0.00 0.800203 -0.041745 0.000000
624 1 1 0.00 0.801489 -0.041732 0.000000
625 1 1 0.00 0.802776 -0.041718 0.000000
626 1 1 0.00 0.804062 -0.041704 0.000000
627 1 1 0.00 0.805349 -0.041690 0.000000
628 1 1 0.00 0.806635 -0.041677 0.000000
629 1 1 0.00 0.807922 -0.041663 0.000000
630 1 1 0.00 0.809208 -0.041650 0.000000
631 1 1 0.00 0.810495 -0.041637 0.000000
632 1 1 0.00 0.811781 -0.041623 0.000000
633 1 1 0.00 0.813068 -0.041610 0.000000
634 1 1 0.00 0.814354 -0.041597 0.000000
635 1 1 0.00 0.815641 -0.041583 0.000000
636 1 1 0.00 0.816927 -0.041570 0.000000
637 1 1 0.00 0.818214 -0.041557 0.000000
638 1 1 0.00 0.819500 -0.041544 0.000000
639 1 1 0.00 0.820787 -0.041531 0.000000
640 1 1 0.00 0.822073 -0.041519 0.000000
641 1 1 0.00 0.823360 -0.041506 0.000000
642 1 1 0.00 0.824646 -0.041493 0.000000
643 1 1 0.00 0.825933 -0.041480 0.000000
644 1 1 0.00 0.827219 -0.041468 0.000000
645 1 1 0.00 0.828506 -0.041455 0.000000
646 1 1 0.00 0.829792 -0.041443 0.000000
647 1 1 0.00 0.831079 -0.041430 0.000000
648 1 1 0.00 0.832366 -0.041418 0.000000
649 1 1 0.00 0.833652 -0.041406 0.000000
650 1 1 0.00 0.834939 -0.041393 0.000000
651 1 1 0.00 0.836225 -0.041381 0.000000
652 1 1 0.00 0.837512 -0.041369 0.000000
653 1 1 0.00 0.838798 -0.041357 0.000000
654 1 1 0.00 0.840085 -0.041345 0.000000
655 1 1 0.00 0.841371 -0.041333 0.000000
656 1 1 0.00 0.842658 -0.041322 0.000000
657 1 1 0.00 0.843944 -0.041310 0.000000
658 1 1 0.00 0.845231 -0.041298 0.000000
659 1 1 0.00 0.846517 -0.041287 0.000000
660 1 1 0.00 0.847804 -0.041275 0.000000
661 1 1 0.00 0.849090 -0.041264 0.000000
662 1 1 0.00 0.850377 -0.041252 0.000000
663 1 1 0.00 0.851663 -0.041241 0.000000
664 1 1 0.00 0.852950 -0.041230 0.000000
665 1 1 0.00 0.854236 -0.041218 0.000000
666 1 1 0.00 0.855523 -0.041207 0.000000
667 1 1 0.00 0.856810 -0.041196 0.000000
668 1 1 0.00 0.858096 -0.041185 0.000000
669 1 1 0.00 0.859383 -0.041174 0.000000
670 1 1 0.00 0.860669 -0.041164 0.000000
671 1 1 0.00 0.861956 -0.041153 0.000000
672 1 1 0.00 0.863242 -0.041142 0.000000
673 1 1 0.00 0.864529 -0.041132 0.000000
674 1 1 0.00 0.865815 -0.041121 0.000000
675 1 1 0.00 0.867102 -0.041111 0.000000
676 1 1 0.00 0.868388 -0.041100 0.000000
677 1 1 0.00 0.869675 -0.041090 0.000000
678 1 1 0.00 0.870961 -0.041080 0.000000
679 1 1 0.00 0.872248 -0.041070 0.000000
680 1 1 0.00 0.873535 -0.041060 0.000000
681 1 1 0.00 0.874821 -0.041050 0.000000
682 1 1 0.00 0.876108 -0.041040 0.000000
683 1 1 0.00 0.877394 -0.041030 0.000000
684 1 1 0.00 0.878681 -0.041020 0.000000
685 1 1 0.00 0.879967 -0.041011 0.000000
686 1 1 0.00 0.881254 -0.041001 0.000000
687 1 1 0.00 0.882540 -0.040992 0.000000
688 1 1 0.00 0.883827 -0.040982 0.000000
689 1 1 0.00 0.885113 -0.040973 0.000000
690 1 1 0.00 0.886400 -0.040964 0.000000
691 1 1 0.00 0.887686 -0.040955 0.000000
692 1 1 0.00 0.888973 -0.040946 0.000000
693 1 1 0.00 0.890260 -0.040937 0.000000
694 1 1 0.00 0.891546 -0.040928 0.000000
695 1 1 0.00 0.892833 -0.040919 0.000000
696 1 1 0.00 0.894119 -0.040910 0.000000
697 1 1 0.00 0.895406 -0.040902 0.000000
698 1 1 0.00 0.896692 -0.040893 0.000000
699 1 1 0.00 0.897979 -0.040885 0.000000
700 1 1 0.00 0.899265 -0.040876 0.000000
701 1 1 0.00 0.900552 -0.040868 0.000000
702 1 1 0.00 0.901839 -0.040860 0.000000
703 1 1 0.00 0.903125 -0.040852 0.000000
704 1 1 0.00 0.904412 -0.040844 0.000000
705 1 1 0.00 0.905698 -0.040836 0.000000
706 1 1 0.00 0.906985 -0.040828 0.000000
707 1 1 0.00 0.908271 -0.040820 0.000000
708 1 1 0.00 0.909558 -0.040813 0.000000
709 1 1 0.00 0.910844 -0.040805 0.000000
710 1 1 0.00 0.912131 -0.040797 0.000000
711 1 1 0.00 0.913418 -0.040790 0.000000
712 1 1 0.00 0.914704 -0.040783 0.000000
713 1 1 0.00 0.915991 -0.040776 0.000000
714 1 1 0.00 0.917277 -0.040769 0.000000
715 1 1 0.00 0.918564 -0.040762 0.000000
716 1 1 0.00 0.919850 -0.040755 0.000000
717 1 1 0.00 0.921137 -0.040748 0.000000
718 1 1 0.00 0.922423 -0.040741 0.000000
719 1 1 0.00 0.923710 -0.040734 0.000000
720 1 1 0.00 0.924997 -0.040728 0.000000
721 1 1 0.00 0.926283 -0.040722 0.000000
722 1 1 0.00 0.927570 -0.040715 0.000000
723 1 1 0.00 0.928856 -0.040709 0.000000
724 1 1 0.00 0.930143 -0.040703 0.000000
725 1 1 0.00 0.931429 -0.040697 0.000000
726 1 1 0.00 0.932716 -0.040691 0.000000
727 1 1 0.00 0.934003 -0.040685 0.000000
728 1 1 0.00 0.935289 -0.040679 0.000000
729 1 1 0.00 0.936576 -0.040674 0.000000
730 1 1 0.00 0.937862 -0.040668 0.000000