ITEM: TIMESTEP
0
ITEM: NUMBER OF ATOMS
8
ITEM: BOX BOUNDS pp pp pp
-10.000000 10.000000 
-10.000000 10.000000 
-10.000000 10.000000 
ITEM: ATOMS id mol type q xu yu zu px py pz
1 1 1 3.037371 0.000000 -0.500000 0.000000 0.000000 0.000000 0.000000 0 0 0
2 1 1 3.037371 1.000000 -0.342000 0.000000 0.000000 0.000000 0.000000 1 1 0
3 1 1 3.037371 2.000000 -0.183000 0.000000 0.000000 0.000000 0.000000 1 1 0
4 1 1 3.037371 3.000000 -0.025000 0.000000 0.000000 0.000000 0.000000 1 1 0
5 2 1 3.037371 0.000000 0.500000 0.000000 0.000000 0.000000 0.000000 0 0 0
6 2 1 3.037371 1.000000 0.342000 0.000000 0.000000 0.000000 0.000000 1 1 0
7 2 1 3.037371 2.000000 0.183000 0.000000 0.000000 0.000000 0.000000 1 1 0
8 2 1 3.037371 3.000000 0.025000 0.000000 0.000000 0.000000 0.000000 1 1 0
ITEM: TIMESTEP
0
ITEM: NUMBER OF ATOMS
8
ITEM: BOX BOUNDS pp pp pp
-10.000000 10.000000 
-10.000000 10.000000 
-10.000000 10.000000 
ITEM: ATOMS id mol type q xu yu zu px py pz
1 1 1 3.037371 0.000000 -0.500000 0.000000 0.000000 0.000000 0.000000 0 0 0
2 1 1 3.037371 0.539181 0.150586 0.000000 0.000000 0.000000 0.000000 1 1 0
3 1 1 3.037371 0.208777 -0.084593 0.000000 0.000000 0.000000 0.000000 1 1 0
4 1 1 3.037371 2.857887 -0.013033 0.000000 0.000000 0.000000 0.000000 1 1 0
5 2 1 3.037371 -0.000000 0.500000 -0.000000 0.000000 0.000000 0.000000 0 0 0
6 2 1 3.037371 0.498856 -0.090855 0.000000 0.000000 0.000000 0.000000 1 1 0
7 2 1 3.037371 0.232189 0.037820 0.000000 0.000000 0.000000 0.000000 1 1 0
8 2 1 3.037371 2.864610 0.038623 0.000000 0.000000 0.000000 0.000000 1 1 0
ITEM: TIMESTEP
0
ITEM: NUMBER OF ATOMS
8
ITEM: BOX BOUNDS pp pp pp
-10.000000 10.000000 
-10.000000 10.000000 
-10.000000 10.000000 
ITEM: ATOMS id mol type q xu yu zu px py pz
1 1 1 3.037371 0.000000 -0.500000 0.000000 0.000000 0.000000 0.000000 0 0 0
2 1 1 3.037371 0.539366 0.150599 0.000000 0.000000 0.000000 0.000000 1 1 0
3 1 1 3.037371 0.209016 -0.084695 0.000000 0.000000 0.000000 0.000000 1 1 0
4 1 1 3.037371 2.858026 -0.012908 0.000000 0.000000 0.000000 0.000000 1 1 0
5 2 1 3.037371 -0.000000 0.500000 -0.000000 0.000000 0.000000 0.000000 0 0 0
6 2 1 3.037371 0.498424 -0.091381 0.000000 0.000000 0.000000 0.000000 1 1 0
7 2 1 3.037371 0.232006 0.037874 0.000000 0.000000 0.000000 0.000000 1 1 0
8 2 1 3.037371 2.863829 0.038723 0.000000 0.000000 0.000000 0.000000 1 1 0
ITEM: TIMESTEP
0
ITEM: NUMBER OF ATOMS
8
ITEM: BOX BOUNDS pp pp pp
-10.000000 10.000000 
-10.000000 10.000000 
-10.000000 10.000000 
ITEM: ATOMS id mol type q xu yu zu px py pz
1 1 1 3.037371 0.000000 -0.500000 0.000000 0.000000 0.000000 0.000000 0 0 0
2 1 1 3.037371 0.539368 0.150574 0.000000 0.000000 0.000000 0.000000 1 1 0
3 1 1 3.037371 0.209015 -0.084681 0.000000 0.000000 0.000000 0.000000 1 1 0
4 1 1 3.037371 2.858027 -0.012911 0.000000 0.000000 0.000000 0.000000 1 1 0
5 2 1 3.037371 0.000000 0.500000 0.000000 0.000000 0.000000 0.000000 0 0 0
6 2 1 3.037371 0.498434 -0.091368 0.000000 0.000000 0.000000 0.000000 1 1 0
7 2 1 3.037371 0.231997 0.037866 0.000000 0.000000 0.000000 0.000000 1 1 0
8 2 1 3.037371 2.863833 0.038725 0.000000 0.000000 0.000000 0.000000 1 1 0
ITEM: TIMESTEP
0
ITEM: NUMBER OF ATOMS
8
ITEM: BOX BOUNDS pp pp pp
-10.000000 10.000000 
-10.000000 10.000000 
-10.000000 10.000000 
ITEM: ATOMS id mol type q xu yu zu px py pz
1 1 1 3.037371 0.000000 -0.500000 0.000000 0.000000 0.000000 0.000000 0 0 0
2 1 1 3.037371 0.539374 0.150497 0.000000 0.000000 0.000000 0.000000 1 1 0
3 1 1 3.037371 0.209010 -0.084638 0.000000 0.000000 0.000000 0.000000 1 1 0
4 1 1 3.037371 2.858029 -0.012920 0.000000 0.000000 0.000000 0.000000 1 1 0
5 2 1 3.037371 0.000000 0.500000 0.000000 0.000000 0.000000 0.000000 0 0 0
6 2 1 3.037371 0.498464 -0.091331 0.000000 0.000000 0.000000 0.000000 1 1 0
7 2 1 3.037371 0.231969 0.037843 0.000000 0.000000 0.000000 0.000000 1 1 0
8 2 1 3.037371 2.863844 0.038731 0.000000 0.000000 0.000000 0.000000 1 1 0
ITEM: TIMESTEP
0
ITEM: NUMBER OF ATOMS
8
ITEM: BOX BOUNDS pp pp pp
-10.000000 10.000000 
-10.000000 10.000000 
-10.000000 10.000000 
ITEM: ATOMS id mol type q xu yu zu px py pz
1 1 1 3.037371 0.000000 -0.500000 0.000000 0.000000 0.000000 0.000000 0 0 0
2 1 1 3.037371 0.539384 0.150371 0.000000 0.000000 0.000000 0.000000 1 1 0
3 1 1 3.037371 0.209002 -0.084568 0.000000 0.000000 0.000000 0.000000 1 1 0
4 1 1 3.037371 2.858032 -0.012936 0.000000 0.000000 0.000000 0.000000 1 1 0
5 2 1 3.037371 0.000000 0.500000 0.000000 0.000000 0.000000 0.000000 0 0 0
6 2 1 3.037371 0.498515 -0.091270 0.000000 0.000000 0.000000 0.000000 1 1 0
7 2 1 3.037371 0.231924 0.037804 0.000000 0.000000 0.000000 0.000000 1 1 0
8 2 1 3.037371 2.863864 0.038741 0.000000 0.000000 0.000000 0.000000 1 1 0
ITEM: TIMESTEP
0
ITEM: NUMBER OF ATOMS
8
ITEM: BOX BOUNDS pp pp pp
-10.000000 10.000000 
-10.000000 10.000000 
-10.000000 10.000000 
ITEM: ATOMS id mol type q xu yu zu px py pz
1 1 1 3.037371 0.000000 -0.500000 0.000000 0.000000 0.000000 0.000000 0 0 0
2 1 1 3.037371 0.539399 0.150197 0.000000 0.000000 0.000000 0.000000 1 1 0
3 1 1 3.037371 0.208989 -0.084472 0.000000 0.000000 0.000000 0.000000 1 1 0
4 1 1 3.037371 2.858038 -0.012957 0.000000 0.000000 0.000000 0.000000 1 1 0
5 2 1 3.037371 0.000000 0.500000 0.000000 0.000000 0.000000 0.000000 0 0 0
6 2 1 3.037371 0.498585 -0.091186 0.000000 0.000000 0.000000 0.000000 1 1 0
7 2 1 3.037371 0.231861 0.037751 0.000000 0.000000 0.000000 0.000000 1 1 0
8 2 1 3.037371 2.863891 0.038755 0.000000 0.000000 0.000000 0.000000 1 1 0
ITEM: TIMESTEP
0
ITEM: NUMBER OF ATOMS
8
ITEM: BOX BOUNDS pp pp pp
-10.000000 10.000000 
-10.000000 10.000000 
-10.000000 10.000000 
ITEM: ATOMS id mol type q xu yu zu px py pz
1 1 1 3.037371 0.000000 -0.500000 0.000000 0.000000 0.000000 0.000000 0 0 0
2 1 1 3.037371 0.539422 0.149978 0.000000 0.000000 0.000000 0.000000 1 1 0
3 1 1 3.037371 0.208971 -0.084353 0.000000 0.000000 0.000000 0.000000 1 1 0
4 1 1 3.037371 2.858046 -0.012983 0.000000 0.000000 0.000000 0.000000 1 1 0
5 2 1 3.037371 0.000000 0.500000 0.000000 0.000000 0.000000 0.000000 0 0 0
6 2 1 3.037371 0.498675 -0.091078 0.000000 0.000000 0.000000 0.000000 1 1 0
7 2 1 3.037371 0.231781 0.037684 0.000000 0.000000 0.000000 0.000000 1 1 0
8 2 1 3.037371 2.863925 0.038772 0.000000 0.000000 0.000000 0.000000 1 1 0
ITEM: TIMESTEP
0
ITEM: NUMBER OF ATOMS
8
ITEM: BOX BOUNDS pp pp pp
-10.000000 10.000000 
-10.000000 10.000000 
-10.000000 10.000000 
ITEM: ATOMS id mol type q xu yu zu px py pz
1 1 1 3.037371 0.000000 -0.500000 0.000000 0.000000 0.000000 0.000000 0 0 0
2 1 1 3.037371 0.539453 0.149718 0.000000 0.000000 0.000000 0.000000 1 1 0
3 1 1 3.037371 0.208945 -0.084212 0.000000 0.000000 0.000000 0.000000 1 1 0
4 1 1 3.037371 2.858056 -0.013013 0.000000 0.000000 0.000000 0.000000 1 1 0
5 2 1 3.037371 0.000000 0.500000 0.000000 0.000000 0.000000 0.000000 0 0 0
6 2 1 3.037371 0.498785 -0.090948 0.000000 0.000000 0.000000 0.000000 1 1 0
7 2 1 3.037371 0.231682 0.037605 0.000000 0.000000 0.000000 0.000000 1 1 0
8 2 1 3.037371 2.863967 0.038791 0.000000 0.000000 0.000000 0.000000 1 1 0
ITEM: TIMESTEP
0
ITEM: NUMBER OF ATOMS
8
ITEM: BOX BOUNDS pp pp pp
-10.000000 10.000000 
-10.000000 10.000000 
-10.000000 10.000000 
ITEM: ATOMS id mol type q xu yu zu px py pz
1 1 1 3.037371 0.000000 -0.500000 0.000000 0.000000 0.000000 0.000000 0 0 0
2 1 1 3.037371 0.539494 0.149422 0.000000 0.000000 0.000000 0.000000 1 1 0
3 1 1 3.037371 0.208910 -0.084052 0.000000 0.000000 0.000000 0.000000 1 1 0
4 1 1 3.037371 2.858071 -0.013046 0.000000 0.000000 0.000000 0.000000 1 1 0
5 2 1 3.037371 0.000000 0.500000 0.000000 0.000000 0.000000 0.000000 0 0 0
6 2 1 3.037371 0.498913 -0.090797 0.000000 0.000000 0.000000 0.000000 1 1 0
7 2 1 3.037371 0.231567 0.037516 0.000000 0.000000 0.000000 0.000000 1 1 0
8 2 1 3.037371 2.864017 0.038812 0.000000 0.000000 0.000000 0.000000 1 1 0
ITEM: TIMESTEP
0
ITEM: NUMBER OF ATOMS
8
ITEM: BOX BOUNDS pp pp pp
-10.000000 10.000000 
-10.000000 10.000000 
-10.000000 10.000000 
ITEM: ATOMS id mol type q xu yu zu px py pz
1 1 1 3.037371 0.000000 -0.500000 0.000000 0.000000 0.000000 0.000000 0 0 0
2 1 1 3.037371 0.539549 0.149093 0.000000 0.000000 0.000000 0.000000 1 1 0
3 1 1 3.037371 0.208864 -0.083878 0.000000 0.000000 0.000000 0.000000 1 1 0
4 1 1 3.037371 2.858090 -0.013081 0.000000 0.000000 0.000000 0.000000 1 1 0
5 2 1 3.037371 0.000000 0.500000 0.000000 0.000000 0.000000 0.000000 0 0 0
6 2 1 3.037371 0.499061 -0.090625 0.000000 0.000000 0.000000 0.000000 1 1 0
7 2 1 3.037371 0.231434 0.037417 0.000000 0.000000 0.000000 0.000000 1 1 0
8 2 1 3.037371 2.864074 0.038835 0.000000 0.000000 0.000000 0.000000 1 1 0
ITEM: TIMESTEP
0
ITEM: NUMBER OF ATOMS
8
ITEM: BOX BOUNDS pp pp pp
-10.000000 10.000000 
-10.000000 10.000000 
-10.000000 10.000000 
ITEM: ATOMS id mol type q xu yu zu px py pz
1 1 1 3.037371 0.000000 -0.500000 0.000000 0.000000 0.000000 0.000000 0 0 0
2 1 1 3.037371 0.539619 0.148736 0.000000 0.000000 0.000000 0.000000 1 1 0
3 1 1 3.037371 0.208805 -0.083692 0.000000 0.000000 0.000000 0.000000 1 1 0
4 1 1 3.037371 2.858115 -0.013118 0.000000 0.000000 0.000000 0.000000 1 1 0
5 2 1 3.037371 0.000000 0.500000 0.000000 0.000000 0.000000 0.000000 0 0 0
6 2 1 3.037371 0.499227 -0.090435 0.000000 0.000000 0.000000 0.000000 1 1 0
7 2 1 3.037371 0.231285 0.037310 0.000000 0.000000 0.000000 0.000000 1 1 0
8 2 1 3.037371 2.864138 0.038858 0.000000 0.000000 0.000000 0.000000 1 1 0
ITEM: TIMESTEP
0
ITEM: NUMBER OF ATOMS
8
ITEM: BOX BOUNDS pp pp pp
-10.000000 10.000000 
-10.000000 10.000000 
-10.000000 10.000000 
ITEM: ATOMS id mol type q xu yu zu px py pz
1 1 1 3.037371 0.000000 -0.500000 0.000000 0.000000 0.000000 0.000000 0 0 0
2 1 1 3.037371 0.539706 0.148358 0.000000 0.000000 0.000000 0.000000 1 1 0
3 1 1 3.037371 0.208731 -0.083498 0.000000 0.000000 0.000000 0.000000 1 1 0
4 1 1 3.037371 2.858147 -0.013154 0.000000 0.000000 0.000000 0.000000 1 1 0
5 2 1 3.037371 0.000000 0.500000 0.000000 0.000000 0.000000 0.000000 0 0 0
6 2 1 3.037371 0.499411 -0.090226 0.000000 0.000000 0.000000 0.000000 1 1 0
7 2 1 3.037371 0.231120 0.037197 0.000000 0.000000 0.000000 0.000000 1 1 0
8 2 1 3.037371 2.864209 0.038881 0.000000 0.000000 0.000000 0.000000 1 1 0
ITEM: TIMESTEP
0
ITEM: NUMBER OF ATOMS
8
ITEM: BOX BOUNDS pp pp pp
-10.000000 10.000000 
-10.000000 10.000000 
-10.000000 10.000000 
ITEM: ATOMS id mol type q xu yu zu px py pz
1 1 1 3.037371 0.000000 -0.500000 0.000000 0.000000 0.000000 0.000000 0 0 0
2 1 1 3.037371 0.539985 0.149518 0.000000 0.000000 0.000000 0.000000 1 1 0
3 1 1 3.037371 0.209135 -0.084798 0.000000 0.000000 0.000000 0.000000 1 1 0
4 1 1 3.037371 2.858395 -0.012826 0.000000 0.000000 0.000000 0.000000 1 1 0
5 2 1 3.037371 0.000000 0.500000 -0.000000 0.000000 0.000000 0.000000 0 0 0
6 2 1 3.037371 0.497897 -0.093336 -0.000000 0.000000 0.000000 0.000000 1 1 0
7 2 1 3.037371 0.230503 0.037874 0.000000 0.000000 0.000000 0.000000 1 1 0
8 2 1 3.037371 2.865259 0.038970 0.000000 0.000000 0.000000 0.000000 1 1 0
ITEM: TIMESTEP
0
ITEM: NUMBER OF ATOMS
8
ITEM: BOX BOUNDS pp pp pp
-10.000000 10.000000 
-10.000000 10.000000 
-10.000000 10.000000 
ITEM: ATOMS id mol type q xu yu zu px py pz
1 1 1 3.037371 0.000000 -0.500000 0.000000 0.000000 0.000000 0.000000 0 0 0
2 1 1 3.037371 0.540086 0.149110 0.000000 0.000000 0.000000 0.000000 1 1 0
3 1 1 3.037371 0.209048 -0.084593 0.000000 0.000000 0.000000 0.000000 1 1 0
4 1 1 3.037371 2.858431 -0.012863 0.000000 0.000000 0.000000 0.000000 1 1 0
5 2 1 3.037371 0.000000 0.500000 0.000000 0.000000 0.000000 0.000000 0 0 0
6 2 1 3.037371 0.498052 -0.093045 0.000000 0.000000 0.000000 0.000000 1 1 0
7 2 1 3.037371 0.230361 0.037724 0.000000 0.000000 0.000000 0.000000 1 1 0
8 2 1 3.037371 2.865320 0.038998 0.000000 0.000000 0.000000 0.000000 1 1 0
ITEM: TIMESTEP
0
ITEM: NUMBER OF ATOMS
8
ITEM: BOX BOUNDS pp pp pp
-10.000000 10.000000 
-10.000000 10.000000 
-10.000000 10.000000 
ITEM: ATOMS id mol type q xu yu zu px py pz
1 1 1 3.037371 0.000000 -0.500000 0.000000 0.000000 0.000000 0.000000 0 0 0
2 1 1 3.037371 0.540197 0.148665 0.000000 0.000000 0.000000 0.000000 1 1 0
3 1 1 3.037371 0.208954 -0.084372 0.000000 0.000000 0.000000 0.000000 1 1 0
4 1 1 3.037371 2.858471 -0.012902 0.000000 0.000000 0.000000 0.000000 1 1 0
5 2 1 3.037371 0.000000 0.500000 0.000000 0.000000 0.000000 0.000000 0 0 0
6 2 1 3.037371 0.498133 -0.092610 0.000000 0.000000 0.000000 0.000000 1 1 0
7 2 1 3.037371 0.230283 0.037508 0.000000 0.000000 0.000000 0.000000 1 1 0
8 2 1 3.037371 2.865356 0.039037 0.000000 0.000000 0.000000 0.000000 1 1 0
ITEM: TIMESTEP
0
ITEM: NUMBER OF ATOMS
8
ITEM: BOX BOUNDS pp pp pp
-10.000000 10.000000 
-10.000000 10.000000 
-10.000000 10.000000 
ITEM: ATOMS id mol type q xu yu zu px py pz
1 1 1 3.037371 0.000000 -0.500000 0.000000 0.000000 0.000000 0.000000 0 0 0
2 1 1 3.037371 0.540321 0.148189 0.000000 0.000000 0.000000 0.000000 1 1 0
3 1 1 3.037371 0.208848 -0.084141 0.000000 0.000000 0.000000 0.000000 1 1 0
4 1 1 3.037371 2.858516 -0.012940 0.000000 0.000000 0.000000 0.000000 1 1 0
5 2 1 3.037371 0.000000 0.500000 0.000000 0.000000 0.000000 0.000000 0 0 0
6 2 1 3.037371 0.498143 -0.092036 0.000000 0.000000 0.000000 0.000000 1 1 0
7 2 1 3.037371 0.230265 0.037230 0.000000 0.000000 0.000000 0.000000 1 1 0
8 2 1 3.037371 2.865367 0.039085 0.000000 0.000000 0.000000 0.000000 1 1 0
ITEM: TIMESTEP
0
ITEM: NUMBER OF ATOMS
8
ITEM: BOX BOUNDS pp pp pp
-10.000000 10.000000 
-10.000000 10.000000 
-10.000000 10.000000 
ITEM: ATOMS id mol type q xu yu zu px py pz
1 1 1 3.037371 0.000000 -0.500000 0.000000 0.000000 0.000000 0.000000 0 0 0
2 1 1 3.037371 0.540461 0.147689 0.000000 0.000000 0.000000 0.000000 1 1 0
3 1 1 3.037371 0.208729 -0.083903 0.000000 0.000000 0.000000 0.000000 1 1 0
4 1 1 3.037371 2.858566 -0.012977 0.000000 0.000000 0.000000 0.000000 1 1 0
5 2 1 3.037371 0.000000 0.500000 0.000000 0.000000 0.000000 0.000000 0 0 0
6 2 1 3.037371 0.498086 -0.091333 0.000000 0.000000 0.000000 0.000000 1 1 0
7 2 1 3.037371 0.230303 0.036894 0.000000 0.000000 0.000000 0.000000 1 1 0
8 2 1 3.037371 2.865354 0.039140 0.000000 0.000000 0.000000 0.000000 1 1 0
ITEM: TIMESTEP
0
ITEM: NUMBER OF ATOMS
8
ITEM: BOX BOUNDS pp pp pp
-10.000000 10.000000 
-10.000000 10.000000 
-10.000000 10.000000 
ITEM: ATOMS id mol type q xu yu zu px py pz
1 1 1 3.037371 0.000000 -0.500000 0.000000 0.000000 0.000000 0.000000 0 0 0
2 1 1 3.037371 0.540620 0.147172 0.000000 0.000000 0.000000 0.000000 1 1 0
3 1 1 3.037371 0.208593 -0.083662 0.000000 0.000000 0.000000 0.000000 1 1 0
4 1 1 3.037371 2.858623 -0.013012 0.000000 0.000000 0.000000 0.000000 1 1 0
5 2 1 3.037371 0.000000 0.500000 0.000000 0.000000 0.000000 0.000000 0 0 0
6 2 1 3.037371 0.497969 -0.090511 0.000000 0.000000 0.000000 0.000000 1 1 0
7 2 1 3.037371 0.230392 0.036507 0.000000 0.000000 0.000000 0.000000 1 1 0
8 2 1 3.037371 2.865322 0.039202 0.000000 0.000000 0.000000 0.000000 1 1 0
ITEM: TIMESTEP
0
ITEM: NUMBER OF ATOMS
8
ITEM: BOX BOUNDS pp pp pp
-10.000000 10.000000 
-10.000000 10.000000 
-10.000000 10.000000 
ITEM: ATOMS id mol type q xu yu zu px py pz
1 1 1 3.037371 0.000000 -0.500000 0.000000 0.000000 0.000000 0.000000 0 0 0
2 1 1 3.037371 0.540800 0.146644 0.000000 0.000000 0.000000 0.000000 1 1 0
3 1 1 3.037371 0.208438 -0.083421 0.000000 0.000000 0.000000 0.000000 1 1 0
4 1 1 3.037371 2.858689 -0.013044 0.000000 0.000000 0.000000 0.000000 1 1 0
5 2 1 3.037371 0.000000 0.500000 0.000000 0.000000 0.000000 0.000000 0 0 0
6 2 1 3.037371 0.497801 -0.089584 0.000000 0.000000 0.000000 0.000000 1 1 0
7 2 1 3.037371 0.230524 0.036076 0.000000 0.000000 0.000000 0.000000 1 1 0
8 2 1 3.037371 2.865272 0.039269 0.000000 0.000000 0.000000 0.000000 1 1 0
ITEM: TIMESTEP
0
ITEM: NUMBER OF ATOMS
8
ITEM: BOX BOUNDS pp pp pp
-10.000000 10.000000 
-10.000000 10.000000 
-10.000000 10.000000 
ITEM: ATOMS id mol type q xu yu zu px py pz
1 1 1 3.037371 0.000000 -0.500000 0.000000 0.000000 0.000000 0.000000 0 0 0
2 1 1 3.037371 0.541007 0.146111 0.000000 0.000000 0.000000 0.000000 1 1 0
3 1 1 3.037371 0.208260 -0.083185 0.000000 0.000000 0.000000 0.000000 1 1 0
4 1 1 3.037371 2.858763 -0.013070 0.000000 0.000000 0.000000 0.000000 1 1 0
5 2 1 3.037371 0.000000 0.500000 0.000000 0.000000 0.000000 0.000000 0 0 0
6 2 1 3.037371 0.497592 -0.088569 0.000000 0.000000 0.000000 0.000000 1 1 0
7 2 1 3.037371 0.230690 0.035609 0.000000 0.000000 0.000000 0.000000 1 1 0
8 2 1 3.037371 2.865208 0.039338 0.000000 0.000000 0.000000 0.000000 1 1 0
ITEM: TIMESTEP
0
ITEM: NUMBER OF ATOMS
8
ITEM: BOX BOUNDS pp pp pp
-10.000000 10.000000 
-10.000000 10.000000 
-10.000000 10.000000 
ITEM: ATOMS id mol type q xu yu zu px py pz
1 1 1 3.037371 0.000000 -0.500000 0.000000 0.000000 0.000000 0.000000 0 0 0
2 1 1 3.037371 0.541241 0.145580 0.000000 0.000000 0.000000 0.000000 1 1 0
3 1 1 3.037371 0.208059 -0.082957 0.000000 0.000000 0.000000 0.000000 1 1 0
4 1 1 3.037371 2.858848 -0.013092 0.000000 0.000000 0.000000 0.000000 1 1 0
5 2 1 3.037371 0.000000 0.500000 0.000000 0.000000 0.000000 0.000000 0 0 0
6 2 1 3.037371 0.497355 -0.087483 0.000000 0.000000 0.000000 0.000000 1 1 0
7 2 1 3.037371 0.230880 0.035114 0.000000 0.000000 0.000000 0.000000 1 1 0
8 2 1 3.037371 2.865134 0.039408 0.000000 0.000000 0.000000 0.000000 1 1 0
ITEM: TIMESTEP
0
ITEM: NUMBER OF ATOMS
8
ITEM: BOX BOUNDS pp pp pp
-10.000000 10.000000 
-10.000000 10.000000 
-10.000000 10.000000 
ITEM: ATOMS id mol type q xu yu zu px py pz
1 1 1 3.037371 0.000000 -0.500000 0.000000 0.000000 0.000000 0.000000 0 0 0
2 1 1 3.037371 0.541506 0.145056 0.000000 0.000000 0.000000 0.000000 1 1 0
3 1 1 3.037371 0.207830 -0.082739 0.000000 0.000000 0.000000 0.000000 1 1 0
4 1 1 3.037371 2.858944 -0.013107 0.000000 0.000000 0.000000 0.000000 1 1 0
5 2 1 3.037371 0.000000 0.500000 0.000000 0.000000 0.000000 0.000000 0 0 0
6 2 1 3.037371 0.497101 -0.086344 0.000000 0.000000 0.000000 0.000000 1 1 0
7 2 1 3.037371 0.231082 0.034602 0.000000 0.000000 0.000000 0.000000 1 1 0
8 2 1 3.037371 2.865056 0.039478 0.000000 0.000000 0.000000 0.000000 1 1 0
ITEM: TIMESTEP
0
ITEM: NUMBER OF ATOMS
8
ITEM: BOX BOUNDS pp pp pp
-10.000000 10.000000 
-10.000000 10.000000 
-10.000000 10.000000 
ITEM: ATOMS id mol type q xu yu zu px py pz
1 1 1 3.037371 0.000000 -0.500000 0.000000 0.000000 0.000000 0.000000 0 0 0
2 1 1 3.037371 0.541803 0.144544 0.000000 0.000000 0.000000 0.000000 1 1 0
3 1 1 3.037371 0.207574 -0.082535 0.000000 0.000000 0.000000 0.000000 1 1 0
4 1 1 3.037371 2.859052 -0.013115 0.000000 0.000000 0.000000 0.000000 1 1 0
5 2 1 3.037371 0.000000 0.500000 0.000000 0.000000 0.000000 0.000000 0 0 0
6 2 1 3.037371 0.496844 -0.085172 0.000000 0.000000 0.000000 0.000000 1 1 0
7 2 1 3.037371 0.231286 0.034080 0.000000 0.000000 0.000000 0.000000 1 1 0
8 2 1 3.037371 2.864977 0.039544 0.000000 0.000000 0.000000 0.000000 1 1 0
ITEM: TIMESTEP
0
ITEM: NUMBER OF ATOMS
8
ITEM: BOX BOUNDS pp pp pp
-10.000000 10.000000 
-10.000000 10.000000 
-10.000000 10.000000 
ITEM: ATOMS id mol type q xu yu zu px py pz
1 1 1 3.037371 0.000000 -0.500000 0.000000 0.000000 0.000000 0.000000 0 0 0
2 1 1 3.037371 0.542104 0.148966 0.000000 0.000000 0.000000 0.000000 1 1 0
3 1 1 3.037371 0.209098 -0.087156 0.000000 0.000000 0.000000 0.000000 1 1 0
4 1 1 3.037371 2.859469 -0.011908 0.000000 0.000000 0.000000 0.000000 1 1 0
5 2 1 3.037371 0.000000 0.500000 -0.000000 0.000000 0.000000 0.000000 0 0 0
6 2 1 3.037371 0.493416 -0.094175 -0.000000 0.000000 0.000000 0.000000 1 1 0
7 2 1 3.037371 0.229640 0.035865 0.000000 0.000000 0.000000 0.000000 1 1 0
8 2 1 3.037371 2.862289 0.039718 0.000000 0.000000 0.000000 0.000000 1 1 0
ITEM: TIMESTEP
0
ITEM: NUMBER OF ATOMS
8
ITEM: BOX BOUNDS pp pp pp
-10.000000 10.000000 
-10.000000 10.000000 
-10.000000 10.000000 
ITEM: ATOMS id mol type q xu yu zu px py pz
1 1 1 3.037371 0.000000 -0.500000 0.000000 0.000000 0.000000 0.000000 0 0 0
2 1 1 3.037371 0.542418 0.148434 0.000000 0.000000 0.000000 0.000000 1 1 0
3 1 1 3.037371 0.208827 -0.086944 0.000000 0.000000 0.000000 0.000000 1 1 0
4 1 1 3.037371 2.859583 -0.011916 0.000000 0.000000 0.000000 0.000000 1 1 0
5 2 1 3.037371 0.000000 0.500000 0.000000 0.000000 0.000000 0.000000 0 0 0
6 2 1 3.037371 0.493162 -0.092966 0.000000 0.000000 0.000000 0.000000 1 1 0
7 2 1 3.037371 0.229841 0.035328 0.000000 0.000000 0.000000 0.000000 1 1 0
8 2 1 3.037371 2.862212 0.039785 0.000000 0.000000 0.000000 0.000000 1 1 0
ITEM: TIMESTEP
0
ITEM: NUMBER OF ATOMS
8
ITEM: BOX BOUNDS pp pp pp
-10.000000 10.000000 
-10.000000 10.000000 
-10.000000 10.000000 
ITEM: ATOMS id mol type q xu yu zu px py pz
1 1 1 3.037371 0.000000 -0.500000 0.000000 0.000000 0.000000 0.000000 0 0 0
2 1 1 3.037371 0.542733 0.147849 0.000000 0.000000 0.000000 0.000000 1 1 0
3 1 1 3.037371 0.208556 -0.086705 0.000000 0.000000 0.000000 0.000000 1 1 0
4 1 1 3.037371 2.859698 -0.011929 0.000000 0.000000 0.000000 0.000000 1 1 0
5 2 1 3.037371 0.000000 0.500000 0.000000 0.000000 0.000000 0.000000 0 0 0
6 2 1 3.037371 0.492918 -0.091719 0.000000 0.000000 0.000000 0.000000 1 1 0
7 2 1 3.037371 0.230033 0.034770 0.000000 0.000000 0.000000 0.000000 1 1 0
8 2 1 3.037371 2.862139 0.039857 0.000000 0.000000 0.000000 0.000000 1 1 0
ITEM: TIMESTEP
0
ITEM: NUMBER OF ATOMS
8
ITEM: BOX BOUNDS pp pp pp
-10.000000 10.000000 
-10.000000 10.000000 
-10.000000 10.000000 
ITEM: ATOMS id mol type q xu yu zu px py pz
1 1 1 3.037371 0.000000 -0.500000 0.000000 0.000000 0.000000 0.000000 0 0 0
2 1 1 3.037371 0.543049 0.147216 0.000000 0.000000 0.000000 0.000000 1 1 0
3 1 1 3.037371 0.208282 -0.086440 0.000000 0.000000 0.000000 0.000000 1 1 0
4 1 1 3.037371 2.859813 -0.011946 0.000000 0.000000 0.000000 0.000000 1 1 0
5 2 1 3.037371 0.000000 0.500000 0.000000 0.000000 0.000000 0.000000 0 0 0
6 2 1 3.037371 0.492698 -0.090454 0.000000 0.000000 0.000000 0.000000 1 1 0
7 2 1 3.037371 0.230204 0.034200 0.000000 0.000000 0.000000 0.000000 1 1 0
8 2 1 3.037371 2.862074 0.039931 0.000000 0.000000 0.000000 0.000000 1 1 0
ITEM: TIMESTEP
0
ITEM: NUMBER OF ATOMS
8
ITEM: BOX BOUNDS pp pp pp
-10.000000 10.000000 
-10.000000 10.000000 
-10.000000 10.000000 
ITEM: ATOMS id mol type q xu yu zu px py pz
1 1 1 3.037371 0.000000 -0.500000 0.000000 0.000000 0.000000 0.000000 0 0 0
2 1 1 3.037371 0.543371 0.146542 0.000000 0.000000 0.000000 0.000000 1 1 0
3 1 1 3.037371 0.208005 -0.086153 0.000000 0.000000 0.000000 0.000000 1 1 0
4 1 1 3.037371 2.859930 -0.011967 0.000000 0.000000 0.000000 0.000000 1 1 0
5 2 1 3.037371 0.000000 0.500000 0.000000 0.000000 0.000000 0.000000 0 0 0
6 2 1 3.037371 0.492515 -0.089192 0.000000 0.000000 0.000000 0.000000 1 1 0
7 2 1 3.037371 0.230341 0.033629 0.000000 0.000000 0.000000 0.000000 1 1 0
8 2 1 3.037371 2.862023 0.040005 0.000000 0.000000 0.000000 0.000000 1 1 0
ITEM: TIMESTEP
0
ITEM: NUMBER OF ATOMS
8
ITEM: BOX BOUNDS pp pp pp
-10.000000 10.000000 
-10.000000 10.000000 
-10.000000 10.000000 
ITEM: ATOMS id mol type q xu yu zu px py pz
1 1 1 3.037371 0.000000 -0.500000 0.000000 0.000000 0.000000 0.000000 0 0 0
2 1 1 3.037371 0.543701 0.145833 0.000000 0.000000 0.000000 0.000000 1 1 0
3 1 1 3.037371 0.207720 -0.085848 0.000000 0.000000 0.000000 0.000000 1 1 0
4 1 1 3.037371 2.860050 -0.011992 0.000000 0.000000 0.000000 0.000000 1 1 0
5 2 1 3.037371 0.000000 0.500000 0.000000 0.000000 0.000000 0.000000 0 0 0
6 2 1 3.037371 0.492385 -0.087953 0.000000 0.000000 0.000000 0.000000 1 1 0
7 2 1 3.037371 0.230434 0.033066 0.000000 0.000000 0.000000 0.000000 1 1 0
8 2 1 3.037371 2.861991 0.040078 0.000000 0.000000 0.000000 0.000000 1 1 0
ITEM: TIMESTEP
0
ITEM: NUMBER OF ATOMS
8
ITEM: BOX BOUNDS pp pp pp
-10.000000 10.000000 
-10.000000 10.000000 
-10.000000 10.000000 
ITEM: ATOMS id mol type q xu yu zu px py pz
1 1 1 3.037371 0.000000 -0.500000 0.000000 0.000000 0.000000 0.000000 0 0 0
2 1 1 3.037371 0.544042 0.145096 0.000000 0.000000 0.000000 0.000000 1 1 0
3 1 1 3.037371 0.207426 -0.085526 0.000000 0.000000 0.000000 0.000000 1 1 0
4 1 1 3.037371 2.860174 -0.012019 0.000000 0.000000 0.000000 0.000000 1 1 0
5 2 1 3.037371 0.000000 0.500000 0.000000 0.000000 0.000000 0.000000 0 0 0
6 2 1 3.037371 0.492319 -0.086757 0.000000 0.000000 0.000000 0.000000 1 1 0
7 2 1 3.037371 0.230471 0.032520 0.000000 0.000000 0.000000 0.000000 1 1 0
8 2 1 3.037371 2.861983 0.040148 0.000000 0.000000 0.000000 0.000000 1 1 0
ITEM: TIMESTEP
0
ITEM: NUMBER OF ATOMS
8
ITEM: BOX BOUNDS pp pp pp
-10.000000 10.000000 
-10.000000 10.000000 
-10.000000 10.000000 
ITEM: ATOMS id mol type q xu yu zu px py pz
1 1 1 3.037371 0.000000 -0.500000 0.000000 0.000000 0.000000 0.000000 0 0 0
2 1 1 3.037371 0.544397 0.144338 0.000000 0.000000 0.000000 0.000000 1 1 0
3 1 1 3.037371 0.207119 -0.085193 0.000000 0.000000 0.000000 0.000000 1 1 0
4 1 1 3.037371 2.860303 -0.012047 0.000000 0.000000 0.000000 0.000000 1 1 0
5 2 1 3.037371 0.000000 0.500000 0.000000 0.000000 0.000000 0.000000 0 0 0
6 2 1 3.037371 0.492329 -0.085622 0.000000 0.000000 0.000000 0.000000 1 1 0
7 2 1 3.037371 0.230441 0.032002 0.000000 0.000000 0.000000 0.000000 1 1 0
8 2 1 3.037371 2.862002 0.040212 0.000000 0.000000 0.000000 0.000000 1 1 0
ITEM: TIMESTEP
0
ITEM: NUMBER OF ATOMS
8
ITEM: BOX BOUNDS pp pp pp
-10.000000 10.000000 
-10.000000 10.000000 
-10.000000 10.000000 
ITEM: ATOMS id mol type q xu yu zu px py pz
1 1 1 3.037371 0.000000 -0.500000 0.000000 0.000000 0.000000 0.000000 0 0 0
2 1 1 3.037371 0.544770 0.143566 0.000000 0.000000 0.000000 0.000000 1 1 0
3 1 1 3.037371 0.206797 -0.084853 0.000000 0.000000 0.000000 0.000000 1 1 0
4 1 1 3.037371 2.860439 -0.012077 0.000000 0.000000 0.000000 0.000000 1 1 0
5 2 1 3.037371 0.000000 0.500000 0.000000 0.000000 0.000000 0.000000 0 0 0
6 2 1 3.037371 0.492426 -0.084564 0.000000 0.000000 0.000000 0.000000 1 1 0
7 2 1 3.037371 0.230337 0.031518 0.000000 0.000000 0.000000 0.000000 1 1 0
8 2 1 3.037371 2.862052 0.040270 0.000000 0.000000 0.000000 0.000000 1 1 0
ITEM: TIMESTEP
0
ITEM: NUMBER OF ATOMS
8
ITEM: BOX BOUNDS pp pp pp
-10.000000 10.000000 
-10.000000 10.000000 
-10.000000 10.000000 
ITEM: ATOMS id mol type q xu yu zu px py pz
1 1 1 3.037371 0.000000 -0.500000 0.000000 0.000000 0.000000 0.000000 0 0 0
2 1 1 3.037371 0.545163 0.142787 0.000000 0.000000 0.000000 0.000000 1 1 0
3 1 1 3.037371 0.206457 -0.084509 0.000000 0.000000 0.000000 0.000000 1 1 0
4 1 1 3.037371 2.860583 -0.012106 0.000000 0.000000 0.000000 0.000000 1 1 0
5 2 1 3.037371 0.000000 0.500000 0.000000 0.000000 0.000000 0.000000 0 0 0
6 2 1 3.037371 0.492618 -0.083595 0.000000 0.000000 0.000000 0.000000 1 1 0
7 2 1 3.037371 0.230150 0.031075 0.000000 0.000000 0.000000 0.000000 1 1 0
8 2 1 3.037371 2.862136 0.040320 0.000000 0.000000 0.000000 0.000000 1 1 0
ITEM: TIMESTEP
0
ITEM: NUMBER OF ATOMS
8
ITEM: BOX BOUNDS pp pp pp
-10.000000 10.000000 
-10.000000 10.000000 
-10.000000 10.000000 
ITEM: ATOMS id mol type q xu yu zu px py pz
1 1 1 3.037371 0.000000 -0.500000 0.000000 0.000000 0.000000 0.000000 0 0 0
2 1 1 3.037371 0.545581 0.142008 0.000000 0.000000 0.000000 0.000000 1 1 0
3 1 1 3.037371 0.206095 -0.084165 0.000000 0.000000 0.000000 0.000000 1 1 0
4 1 1 3.037371 2.860735 -0.012134 0.000000 0.000000 0.000000 0.000000 1 1 0
5 2 1 3.037371 0.000000 0.500000 0.000000 0.000000 0.000000 0.000000 0 0 0
6 2 1 3.037371 0.492911 -0.082726 0.000000 0.000000 0.000000 0.000000 1 1 0
7 2 1 3.037371 0.229876 0.030680 0.000000 0.000000 0.000000 0.000000 1 1 0
8 2 1 3.037371 2.862256 0.040361 0.000000 0.000000 0.000000 0.000000 1 1 0
ITEM: TIMESTEP
0
ITEM: NUMBER OF ATOMS
8
ITEM: BOX BOUNDS pp pp pp
-10.000000 10.000000 
-10.000000 10.000000 
-10.000000 10.000000 
ITEM: ATOMS id mol type q xu yu zu px py pz
1 1 1 3.037371 0.000000 -0.500000 0.000000 0.000000 0.000000 0.000000 0 0 0
2 1 1 3.037371 0.545301 0.149209 -0.000000 0.000000 0.000000 0.000000 1 1 0
3 1 1 3.037371 0.207099 -0.089794 0.000000 0.000000 0.000000 0.000000 1 1 0
4 1 1 3.037371 2.860187 -0.011338 -0.000000 0.000000 0.000000 0.000000 1 1 0
5 2 1 3.037371 -0.000000 0.500000 -0.000000 0.000000 0.000000 0.000000 0 0 0
6 2 1 3.037371 0.490677 -0.093294 -0.000000 0.000000 0.000000 0.000000 1 1 0
7 2 1 3.037371 0.228552 0.032922 0.000000 0.000000 0.000000 0.000000 1 1 0
8 2 1 3.037371 2.861519 0.040300 0.000000 0.000000 0.000000 0.000000 1 1 0
ITEM: TIMESTEP
0
ITEM: NUMBER OF ATOMS
8
ITEM: BOX BOUNDS pp pp pp
-10.000000 10.000000 
-10.000000 10.000000 
-10.000000 10.000000 
ITEM: ATOMS id mol type q xu yu zu px py pz
1 1 1 3.037371 0.000000 -0.500000 0.000000 0.000000 0.000000 0.000000 0 0 0
2 1 1 3.037371 0.545732 0.148404 0.000000 0.000000 0.000000 0.000000 1 1 0
3 1 1 3.037371 0.206727 -0.089438 0.000000 0.000000 0.000000 0.000000 1 1 0
4 1 1 3.037371 2.860344 -0.011369 0.000000 0.000000 0.000000 0.000000 1 1 0
5 2 1 3.037371 0.000000 0.500000 0.000000 0.000000 0.000000 0.000000 0 0 0
6 2 1 3.037371 0.491021 -0.092450 0.000000 0.000000 0.000000 0.000000 1 1 0
7 2 1 3.037371 0.228234 0.032537 0.000000 0.000000 0.000000 0.000000 1 1 0
8 2 1 3.037371 2.861657 0.040340 0.000000 0.000000 0.000000 0.000000 1 1 0
ITEM: TIMESTEP
0
ITEM: NUMBER OF ATOMS
8
ITEM: BOX BOUNDS pp pp pp
-10.000000 10.000000 
-10.000000 10.000000 
-10.000000 10.000000 
ITEM: ATOMS id mol type q xu yu zu px py pz
1 1 1 3.037371 0.000000 -0.500000 0.000000 0.000000 0.000000 0.000000 0 0 0
2 1 1 3.037371 0.546163 0.147551 0.000000 0.000000 0.000000 0.000000 1 1 0
3 1 1 3.037371 0.206354 -0.089057 0.000000 0.000000 0.000000 0.000000 1 1 0
4 1 1 3.037371 2.860502 -0.011404 0.000000 0.000000 0.000000 0.000000 1 1 0
5 2 1 3.037371 0.000000 0.500000 0.000000 0.000000 0.000000 0.000000 0 0 0
6 2 1 3.037371 0.491363 -0.091554 0.000000 0.000000 0.000000 0.000000 1 1 0
7 2 1 3.037371 0.227917 0.032126 0.000000 0.000000 0.000000 0.000000 1 1 0
8 2 1 3.037371 2.861796 0.040384 0.000000 0.000000 0.000000 0.000000 1 1 0
ITEM: TIMESTEP
0
ITEM: NUMBER OF ATOMS
8
ITEM: BOX BOUNDS pp pp pp
-10.000000 10.000000 
-10.000000 10.000000 
-10.000000 10.000000 
ITEM: ATOMS id mol type q xu yu zu px py pz
1 1 1 3.037371 0.000000 -0.500000 0.000000 0.000000 0.000000 0.000000 0 0 0