ITEM: TIMESTEP
0
ITEM: NUMBER OF ATOMS
30
ITEM: BOX BOUNDS pp pp pp
-10.000000 10.000000 
-10.000000 10.000000 
-10.000000 10.000000 
ITEM: ATOMS id mol type q xu yu zu px py pz
1 1 1 1.000000 0.025000 0.043301 0.000000 0.000000 0.000000 0.000000 1 1 0
2 1 1 1.000000 0.191667 0.331976 0.000000 0.000000 0.000000 0.000000 1 1 0
3 1 1 1.000000 0.358333 0.620652 0.000000 0.000000 0.000000 0.000000 1 1 0
4 1 1 1.000000 0.525000 0.909327 0.000000 0.000000 0.000000 0.000000 1 1 0
5 1 1 1.000000 0.691667 1.198002 0.000000 0.000000 0.000000 0.000000 1 1 0
6 1 1 1.000000 0.858333 1.486677 0.000000 0.000000 0.000000 0.000000 1 1 0
7 1 1 1.000000 1.025000 1.775352 0.000000 0.000000 0.000000 0.000000 1 1 0
8 1 1 1.000000 1.191667 2.064027 0.000000 0.000000 0.000000 0.000000 1 1 0
9 1 1 1.000000 1.358333 2.352702 0.000000 0.000000 0.000000 0.000000 1 1 0
10 1 1 1.000000 1.525000 2.641377 0.000000 0.000000 0.000000 0.000000 1 1 0
11 2 1 1.000000 1.500000 2.684679 0.000000 0.000000 0.000000 0.000000 1 1 0
12 2 1 1.000000 1.166667 2.684679 0.000000 0.000000 0.000000 0.000000 1 1 0
13 2 1 1.000000 0.833333 2.684679 0.000000 0.000000 0.000000 0.000000 1 1 0
14 2 1 1.000000 0.500000 2.684679 0.000000 0.000000 0.000000 0.000000 1 1 0
15 2 1 1.000000 0.166667 2.684679 0.000000 0.000000 0.000000 0.000000 1 1 0
16 2 1 1.000000 -0.166667 2.684679 0.000000 0.000000 0.000000 0.000000 1 1 0
17 2 1 1.000000 -0.500000 2.684679 0.000000 0.000000 0.000000 0.000000 1 1 0
18 2 1 1.000000 -0.833333 2.684679 0.000000 0.000000 0.000000 0.000000 1 1 0
19 2 1 1.000000 -1.166667 2.684679 0.000000 0.000000 0.000000 0.000000 1 1 0
20 2 1 1.000000 -1.500000 2.684679 0.000000 0.000000 0.000000 0.000000 1 1 0
21 3 1 1.000000 -1.525000 2.641377 0.000000 0.000000 0.000000 0.000000 1 1 0
22 3 1 1.000000 -1.358333 2.352702 0.000000 0.000000 0.000000 0.000000 1 1 0
23 3 1 1.000000 -1.191667 2.064027 0.000000 0.000000 0.000000 0.000000 1 1 0
24 3 1 1.000000 -1.025000 1.775352 0.000000 0.000000 0.000000 0.000000 1 1 0
25 3 1 1.000000 -0.858333 1.486677 0.000000 0.000000 0.000000 0.000000 1 1 0
26 3 1 1.000000 -0.691667 1.198002 0.000000 0.000000 0.000000 0.000000 1 1 0
27 3 1 1.000000 -0.525000 0.909327 0.000000 0.000000 0.000000 0.000000 1 1 0
28 3 1 1.000000 -0.358333 0.620652 0.000000 0.000000 0.000000 0.000000 1 1 0
29 3 1 1.000000 -0.191667 0.331976 0.000000 0.000000 0.000000 0.000000 1 1 0
30 3 1 1.000000 -0.025000 0.043301 0.000000 0.000000 0.000000 0.000000 1 1 0
ITEM: TIMESTEP
0
ITEM: NUMBER OF ATOMS
30
ITEM: BOX BOUNDS pp pp pp
-10.000000 10.000000 
-10.000000 10.000000 
-10.000000 10.000000 
ITEM: ATOMS id mol type q xu yu zu px py pz
1 1 1 1.000000 0.022822 0.042068 0.000000 0.000000 0.000000 0.000000 1 1 0
2 1 1 1.000000 0.191019 0.332389 0.000000 0.000000 0.000000 0.000000 1 1 0
3 1 1 1.000000 0.357862 0.620847 0.000000 0.000000 0.000000 0.000000 1 1 0
4 1 1 1.000000 0.524245 0.908836 0.000000 0.000000 0.000000 0.000000 1 1 0
5 1 1 1.000000 0.691453 1.198253 0.000000 0.000000 0.000000 0.000000 1 1 0
6 1 1 1.000000 0.857933 1.486769 0.000000 0.000000 0.000000 0.000000 1 1 0
7 1 1 1.000000 1.025040 1.776255 0.000000 0.000000 0.000000 0.000000 1 1 0
8 1 1 1.000000 1.191327 2.064323 0.000000 0.000000 0.000000 0.000000 1 1 0
9 1 1 1.000000 1.357622 2.353063 0.000000 0.000000 0.000000 0.000000 1 1 0
10 1 1 1.000000 1.524979 2.643881 0.000000 0.000000 0.000000 0.000000 1 1 0
11 2 1 1.000000 1.502157 2.683409 0.000000 0.000000 0.000000 0.000000 1 1 0
12 2 1 1.000000 1.166684 2.683914 0.000000 0.000000 0.000000 0.000000 1 1 0
13 2 1 1.000000 0.833298 2.684176 0.000000 0.000000 0.000000 0.000000 1 1 0
14 2 1 1.000000 0.500802 2.684257 0.000000 0.000000 0.000000 0.000000 1 1 0
15 2 1 1.000000 0.166692 2.684337 0.000000 0.000000 0.000000 0.000000 1 1 0
16 2 1 1.000000 -0.166667 2.684369 0.000000 0.000000 0.000000 0.000000 1 1 0
17 2 1 1.000000 -0.500802 2.684261 0.000000 0.000000 0.000000 0.000000 1 1 0
18 2 1 1.000000 -0.833351 2.684152 0.000000 0.000000 0.000000 0.000000 1 1 0
19 2 1 1.000000 -1.166658 2.683925 0.000000 0.000000 0.000000 0.000000 1 1 0
20 2 1 1.000000 -1.502157 2.683409 0.000000 0.000000 0.000000 0.000000 1 1 0
21 3 1 1.000000 -1.524979 2.643881 0.000000 0.000000 0.000000 0.000000 1 1 0
22 3 1 1.000000 -1.357682 2.353080 0.000000 0.000000 0.000000 0.000000 1 1 0
23 3 1 1.000000 -1.191208 2.064289 0.000000 0.000000 0.000000 0.000000 1 1 0
24 3 1 1.000000 -1.025035 1.776258 0.000000 0.000000 0.000000 0.000000 1 1 0
25 3 1 1.000000 -0.858041 1.486803 0.000000 0.000000 0.000000 0.000000 1 1 0
26 3 1 1.000000 -0.691431 1.198229 0.000000 0.000000 0.000000 0.000000 1 1 0
27 3 1 1.000000 -0.524233 0.908843 0.000000 0.000000 0.000000 0.000000 1 1 0
28 3 1 1.000000 -0.357837 0.620847 0.000000 0.000000 0.000000 0.000000 1 1 0
29 3 1 1.000000 -0.191035 0.332387 0.000000 0.000000 0.000000 0.000000 1 1 0
30 3 1 1.000000 -0.022822 0.042068 0.000000 0.000000 0.000000 0.000000 1 1 0
ITEM: TIMESTEP
0
ITEM: NUMBER OF ATOMS
30
ITEM: BOX BOUNDS pp pp pp
-10.000000 10.000000 
-10.000000 10.000000 
-10.000000 10.000000 
ITEM: ATOMS id mol type q xu yu zu px py pz
1 1 1 1.000000 0.019194 0.044157 0.000000 0.000000 0.000000 0.000000 1 1 0
2 1 1 1.000000 0.187273 0.334554 0.000000 0.000000 0.000000 0.000000 1 1 0
3 1 1 1.000000 0.355161 0.622426 0.000000 0.000000 0.000000 0.000000 1 1 0
4 1 1 1.000000 0.522093 0.910023 0.000000 0.000000 0.000000 0.000000 1 1 0
5 1 1 1.000000 0.689908 1.199139 0.000000 0.000000 0.000000 0.000000 1 1 0
6 1 1 1.000000 0.856383 1.487654 0.000000 0.000000 0.000000 0.000000 1 1 0
7 1 1 1.000000 1.022935 1.777525 0.000000 0.000000 0.000000 0.000000 1 1 0
8 1 1 1.000000 1.188625 2.065895 0.000000 0.000000 0.000000 0.000000 1 1 0
9 1 1 1.000000 1.353866 2.355213 0.000000 0.000000 0.000000 0.000000 1 1 0
10 1 1 1.000000 1.521356 2.645979 0.000000 0.000000 0.000000 0.000000 1 1 0
11 2 1 1.000000 1.502161 2.679224 0.000000 0.000000 0.000000 0.000000 1 1 0
12 2 1 1.000000 1.166685 2.679581 0.000000 0.000000 0.000000 0.000000 1 1 0
13 2 1 1.000000 0.833275 2.681056 0.000000 0.000000 0.000000 0.000000 1 1 0
14 2 1 1.000000 0.500852 2.681804 0.000000 0.000000 0.000000 0.000000 1 1 0
15 2 1 1.000000 0.166709 2.682556 0.000000 0.000000 0.000000 0.000000 1 1 0
16 2 1 1.000000 -0.166671 2.682564 0.000000 0.000000 0.000000 0.000000 1 1 0
17 2 1 1.000000 -0.500848 2.681805 0.000000 0.000000 0.000000 0.000000 1 1 0
18 2 1 1.000000 -0.833352 2.681050 0.000000 0.000000 0.000000 0.000000 1 1 0
19 2 1 1.000000 -1.166647 2.679583 0.000000 0.000000 0.000000 0.000000 1 1 0
20 2 1 1.000000 -1.502165 2.679223 0.000000 0.000000 0.000000 0.000000 1 1 0
21 3 1 1.000000 -1.521357 2.645979 0.000000 0.000000 0.000000 0.000000 1 1 0
22 3 1 1.000000 -1.353931 2.355239 0.000000 0.000000 0.000000 0.000000 1 1 0
23 3 1 1.000000 -1.188495 2.065845 0.000000 0.000000 0.000000 0.000000 1 1 0
24 3 1 1.000000 -1.022931 1.777528 0.000000 0.000000 0.000000 0.000000 1 1 0
25 3 1 1.000000 -0.856500 1.487699 0.000000 0.000000 0.000000 0.000000 1 1 0
26 3 1 1.000000 -0.689885 1.199115 0.000000 0.000000 0.000000 0.000000 1 1 0
27 3 1 1.000000 -0.522081 0.910030 0.000000 0.000000 0.000000 0.000000 1 1 0
28 3 1 1.000000 -0.355131 0.622417 0.000000 0.000000 0.000000 0.000000 1 1 0
29 3 1 1.000000 -0.187291 0.334557 0.000000 0.000000 0.000000 0.000000 1 1 0
30 3 1 1.000000 -0.019194 0.044156 0.000000 0.000000 0.000000 0.000000 1 1 0
ITEM: TIMESTEP
0
ITEM: NUMBER OF ATOMS
30
ITEM: BOX BOUNDS pp pp pp
-10.000000 10.000000 
-10.000000 10.000000 
-10.000000 10.000000 
ITEM: ATOMS id mol type q xu yu zu px py pz
1 1 1 1.000000 0.019007 0.043737 0.000000 0.000000 0.000000 0.000000 1 1 0
2 1 1 1.000000 0.187445 0.335026 0.000000 0.000000 0.000000 0.000000 1 1 0
3 1 1 1.000000 0.355166 0.622342 0.000000 0.000000 0.000000 0.000000 1 1 0
4 1 1 1.000000 0.523937 0.913153 0.000000 0.000000 0.000000 0.000000 1 1 0
5 1 1 1.000000 0.690413 1.200010 0.000000 0.000000 0.000000 0.000000 1 1 0
6 1 1 1.000000 0.855549 1.486196 0.000000 0.000000 0.000000 0.000000 1 1 0
7 1 1 1.000000 0.999269 1.736296 0.000000 0.000000 0.000000 0.000000 1 1 0
8 1 1 1.000000 1.187351 2.063591 0.000000 0.000000 0.000000 0.000000 1 1 0
9 1 1 1.000000 1.355233 2.357754 0.000000 0.000000 0.000000 0.000000 1 1 0
10 1 1 1.000000 1.520616 2.644598 0.000000 0.000000 0.000000 0.000000 1 1 0
11 2 1 1.000000 1.502062 2.679269 0.000000 0.000000 0.000000 0.000000 1 1 0
12 2 1 1.000000 1.166843 2.679498 0.000000 0.000000 0.000000 0.000000 1 1 0
13 2 1 1.000000 0.833156 2.681101 0.000000 0.000000 0.000000 0.000000 1 1 0
14 2 1 1.000000 0.483908 2.681865 0.000000 0.000000 0.000000 0.000000 1 1 0
15 2 1 1.000000 0.166694 2.682558 0.000000 0.000000 0.000000 0.000000 1 1 0
16 2 1 1.000000 -0.166720 2.682568 0.000000 0.000000 0.000000 0.000000 1 1 0
17 2 1 1.000000 -0.487462 2.681860 0.000000 0.000000 0.000000 0.000000 1 1 0
18 2 1 1.000000 -0.833487 2.681097 0.000000 0.000000 0.000000 0.000000 1 1 0
19 2 1 1.000000 -1.166489 2.679496 0.000000 0.000000 0.000000 0.000000 1 1 0
20 2 1 1.000000 -1.502255 2.679272 0.000000 0.000000 0.000000 0.000000 1 1 0
21 3 1 1.000000 -1.521708 2.646492 0.000000 0.000000 0.000000 0.000000 1 1 0
22 3 1 1.000000 -1.353166 2.354084 0.000000 0.000000 0.000000 0.000000 1 1 0
23 3 1 1.000000 -1.189297 2.067145 0.000000 0.000000 0.000000 0.000000 1 1 0
24 3 1 1.000000 -1.021194 1.774448 0.000000 0.000000 0.000000 0.000000 1 1 0
25 3 1 1.000000 -0.857339 1.489150 0.000000 0.000000 0.000000 0.000000 1 1 0
26 3 1 1.000000 -0.689049 1.197664 0.000000 0.000000 0.000000 0.000000 1 1 0
27 3 1 1.000000 -0.524017 0.913313 0.000000 0.000000 0.000000 0.000000 1 1 0
28 3 1 1.000000 -0.354411 0.621079 0.000000 0.000000 0.000000 0.000000 1 1 0
29 3 1 1.000000 -0.187902 0.335789 0.000000 0.000000 0.000000 0.000000 1 1 0
30 3 1 1.000000 -0.018929 0.043600 0.000000 0.000000 0.000000 0.000000 1 1 0
ITEM: TIMESTEP
0
ITEM: NUMBER OF ATOMS
30
ITEM: BOX BOUNDS pp pp pp
-10.000000 10.000000 
-10.000000 10.000000 
-10.000000 10.000000 
ITEM: ATOMS id mol type q xu yu zu px py pz
1 1 1 1.000000 0.019589 0.044420 0.000000 0.000000 0.000000 0.000000 1 1 0
2 1 1 1.000000 0.185525 0.332267 0.000000 0.000000 0.000000 0.000000 1 1 0
3 1 1 1.000000 0.357764 0.626529 0.000000 0.000000 0.000000 0.000000 1 1 0
4 1 1 1.000000 0.552478 0.962213 0.000000 0.000000 0.000000 0.000000 1 1 0
5 1 1 1.000000 0.694579 1.207193 0.000000 0.000000 0.000000 0.000000 1 1 0
6 1 1 1.000000 0.850458 1.477351 0.000000 0.000000 0.000000 0.000000 1 1 0
7 1 1 1.000000 0.975634 1.695102 0.000000 0.000000 0.000000 0.000000 1 1 0
8 1 1 1.000000 1.181153 2.052615 0.000000 0.000000 0.000000 0.000000 1 1 0
9 1 1 1.000000 1.361526 2.369087 0.000000 0.000000 0.000000 0.000000 1 1 0
10 1 1 1.000000 1.517392 2.638785 0.000000 0.000000 0.000000 0.000000 1 1 0
11 2 1 1.000000 1.499888 2.679378 0.000000 0.000000 0.000000 0.000000 1 1 0
12 2 1 1.000000 1.171474 2.679290 0.000000 0.000000 0.000000 0.000000 1 1 0
13 2 1 1.000000 0.828258 2.681213 0.000000 0.000000 0.000000 0.000000 1 1 0
14 2 1 1.000000 0.440582 2.681999 0.000000 0.000000 0.000000 0.000000 1 1 0
15 2 1 1.000000 0.161713 2.682564 0.000000 0.000000 0.000000 0.000000 1 1 0
16 2 1 1.000000 -0.161885 2.682585 0.000000 0.000000 0.000000 0.000000 1 1 0
17 2 1 1.000000 -0.438315 2.682030 0.000000 0.000000 0.000000 0.000000 1 1 0
18 2 1 1.000000 -0.829156 2.681247 0.000000 0.000000 0.000000 0.000000 1 1 0
19 2 1 1.000000 -1.170422 2.679224 0.000000 0.000000 0.000000 0.000000 1 1 0
20 2 1 1.000000 -1.500494 2.679426 0.000000 0.000000 0.000000 0.000000 1 1 0
21 3 1 1.000000 -1.521782 2.646315 0.000000 0.000000 0.000000 0.000000 1 1 0
22 3 1 1.000000 -1.353032 2.354388 0.000000 0.000000 0.000000 0.000000 1 1 0
23 3 1 1.000000 -1.189349 2.066946 0.000000 0.000000 0.000000 0.000000 1 1 0
24 3 1 1.000000 -0.997971 1.733881 0.000000 0.000000 0.000000 0.000000 1 1 0
25 3 1 1.000000 -0.857309 1.489080 0.000000 0.000000 0.000000 0.000000 1 1 0
26 3 1 1.000000 -0.689103 1.197736 0.000000 0.000000 0.000000 0.000000 1 1 0
27 3 1 1.000000 -0.548114 0.954692 0.000000 0.000000 0.000000 0.000000 1 1 0
28 3 1 1.000000 -0.354643 0.621177 0.000000 0.000000 0.000000 0.000000 1 1 0
29 3 1 1.000000 -0.187525 0.335698 0.000000 0.000000 0.000000 0.000000 1 1 0
30 3 1 1.000000 -0.019149 0.043658 0.000000 0.000000 0.000000 0.000000 1 1 0
ITEM: TIMESTEP
0
ITEM: NUMBER OF ATOMS
30
ITEM: BOX BOUNDS pp pp pp
-10.000000 10.000000 
-10.000000 10.000000 
-10.000000 10.000000 
ITEM: ATOMS id mol type q xu yu zu px py pz
1 1 1 1.000000 0.024082 0.051722 0.000000 0.000000 0.000000 0.000000 1 1 0
2 1 1 1.000000 0.174882 0.314692 0.000000 0.000000 0.000000 0.000000 1 1 0
3 1 1 1.000000 0.369887 0.647040 0.000000 0.000000 0.000000 0.000000 1 1 0
4 1 1 1.000000 0.594679 1.034860 0.000000 0.000000 0.000000 0.000000 1 1 0
5 1 1 1.000000 0.709398 1.232777 0.000000 0.000000 0.000000 0.000000 1 1 0
6 1 1 1.000000 0.834251 1.449242 0.000000 0.000000 0.000000 0.000000 1 1 0
7 1 1 1.000000 0.933814 1.622367 0.000000 0.000000 0.000000 0.000000 1 1 0
8 1 1 1.000000 1.163528 2.021802 0.000000 0.000000 0.000000 0.000000 1 1 0
9 1 1 1.000000 1.378948 2.399764 0.000000 0.000000 0.000000 0.000000 1 1 0
10 1 1 1.000000 1.508732 2.623560 0.000000 0.000000 0.000000 0.000000 1 1 0
11 2 1 1.000000 1.490654 2.679485 0.000000 0.000000 0.000000 0.000000 1 1 0
12 2 1 1.000000 1.191389 2.679046 0.000000 0.000000 0.000000 0.000000 1 1 0
13 2 1 1.000000 0.806987 2.681347 0.000000 0.000000 0.000000 0.000000 1 1 0
14 2 1 1.000000 0.373225 2.682144 0.000000 0.000000 0.000000 0.000000 1 1 0
15 2 1 1.000000 0.139418 2.682573 0.000000 0.000000 0.000000 0.000000 1 1 0
16 2 1 1.000000 -0.139648 2.682623 0.000000 0.000000 0.000000 0.000000 1 1 0
17 2 1 1.000000 -0.367803 2.682229 0.000000 0.000000 0.000000 0.000000 1 1 0
18 2 1 1.000000 -0.808071 2.681468 0.000000 0.000000 0.000000 0.000000 1 1 0
19 2 1 1.000000 -1.190126 2.678830 0.000000 0.000000 0.000000 0.000000 1 1 0
20 2 1 1.000000 -1.491382 2.679642 0.000000 0.000000 0.000000 0.000000 1 1 0
21 3 1 1.000000 -1.518894 2.640885 0.000000 0.000000 0.000000 0.000000 1 1 0
22 3 1 1.000000 -1.359326 2.366071 0.000000 0.000000 0.000000 0.000000 1 1 0
23 3 1 1.000000 -1.182469 2.054600 0.000000 0.000000 0.000000 0.000000 1 1 0
24 3 1 1.000000 -0.964467 1.675460 0.000000 0.000000 0.000000 0.000000 1 1 0
25 3 1 1.000000 -0.849951 1.476296 0.000000 0.000000 0.000000 0.000000 1 1 0
26 3 1 1.000000 -0.696529 1.210545 0.000000 0.000000 0.000000 0.000000 1 1 0
27 3 1 1.000000 -0.582328 1.013536 0.000000 0.000000 0.000000 0.000000 1 1 0
28 3 1 1.000000 -0.362032 0.633505 0.000000 0.000000 0.000000 0.000000 1 1 0
29 3 1 1.000000 -0.180371 0.324158 0.000000 0.000000 0.000000 0.000000 1 1 0
30 3 1 1.000000 -0.022523 0.049022 0.000000 0.000000 0.000000 0.000000 1 1 0
ITEM: TIMESTEP
0
ITEM: NUMBER OF ATOMS
30
ITEM: BOX BOUNDS pp pp pp
-10.000000 10.000000 
-10.000000 10.000000 
-10.000000 10.000000 
ITEM: ATOMS id mol type q xu yu zu px py pz
1 1 1 1.000000 0.037926 0.075285 0.000000 0.000000 0.000000 0.000000 1 1 0
2 1 1 1.000000 0.144797 0.263397 0.000000 0.000000 0.000000 0.000000 1 1 0
3 1 1 1.000000 0.402192 0.702513 0.000000 0.000000 0.000000 0.000000 1 1 0
4 1 1 1.000000 0.661579 1.150304 0.000000 0.000000 0.000000 0.000000 1 1 0
5 1 1 1.000000 0.745694 1.295515 0.000000 0.000000 0.000000 0.000000 1 1 0
6 1 1 1.000000 0.795900 1.382738 0.000000 0.000000 0.000000 0.000000 1 1 0
7 1 1 1.000000 0.829613 1.441341 0.000000 0.000000 0.000000 0.000000 1 1 0
8 1 1 1.000000 1.122873 1.951111 0.000000 0.000000 0.000000 0.000000 1 1 0
9 1 1 1.000000 1.419735 2.470852 0.000000 0.000000 0.000000 0.000000 1 1 0
10 1 1 1.000000 1.487958 2.587437 0.000000 0.000000 0.000000 0.000000 1 1 0
11 2 1 1.000000 1.465403 2.679557 0.000000 0.000000 0.000000 0.000000 1 1 0
12 2 1 1.000000 1.244437 2.678816 0.000000 0.000000 0.000000 0.000000 1 1 0
13 2 1 1.000000 0.751414 2.681482 0.000000 0.000000 0.000000 0.000000 1 1 0
14 2 1 1.000000 0.246888 2.682326 0.000000 0.000000 0.000000 0.000000 1 1 0
15 2 1 1.000000 0.081758 2.682602 0.000000 0.000000 0.000000 0.000000 1 1 0
16 2 1 1.000000 -0.081883 2.682678 0.000000 0.000000 0.000000 0.000000 1 1 0
17 2 1 1.000000 -0.258210 2.682417 0.000000 0.000000 0.000000 0.000000 1 1 0
18 2 1 1.000000 -0.752025 2.681685 0.000000 0.000000 0.000000 0.000000 1 1 0
19 2 1 1.000000 -1.243767 2.678457 0.000000 0.000000 0.000000 0.000000 1 1 0
20 2 1 1.000000 -1.465786 2.679825 0.000000 0.000000 0.000000 0.000000 1 1 0
21 3 1 1.000000 -1.508726 2.622903 0.000000 0.000000 0.000000 0.000000 1 1 0
22 3 1 1.000000 -1.380879 2.404158 0.000000 0.000000 0.000000 0.000000 1 1 0
23 3 1 1.000000 -1.159675 2.014692 0.000000 0.000000 0.000000 0.000000 1 1 0
24 3 1 1.000000 -0.912469 1.585030 0.000000 0.000000 0.000000 0.000000 1 1 0
25 3 1 1.000000 -0.826334 1.435321 0.000000 0.000000 0.000000 0.000000 1 1 0
26 3 1 1.000000 -0.720272 1.251585 0.000000 0.000000 0.000000 0.000000 1 1 0
27 3 1 1.000000 -0.633428 1.101669 0.000000 0.000000 0.000000 0.000000 1 1 0
28 3 1 1.000000 -0.385465 0.673622 0.000000 0.000000 0.000000 0.000000 1 1 0
29 3 1 1.000000 -0.157813 0.285913 0.000000 0.000000 0.000000 0.000000 1 1 0
30 3 1 1.000000 -0.033230 0.067143 0.000000 0.000000 0.000000 0.000000 1 1 0
