ITEM: TIMESTEP
0
ITEM: NUMBER OF ATOMS
42
ITEM: BOX BOUNDS pp pp pp
-10.000000 10.000000 
-10.000000 10.000000 
-10.000000 10.000000 
ITEM: ATOMS id mol type q xu yu zu
1 1 1 0.00 0.000000 -0.050000 0.000000
2 1 1 0.00 0.128102 -0.049665 0.000000
3 1 1 0.00 0.256200 -0.048731 0.000000
4 1 1 0.00 0.384294 -0.047325 0.000000
5 1 1 0.00 0.512385 -0.045606 0.000000
6 1 1 0.00 0.640474 -0.043780 0.000000
7 1 1 0.00 0.768565 -0.042102 0.000000
8 1 1 0.00 0.896661 -0.040893 0.000000
9 1 1 0.00 1.024763 -0.040558 0.000000
10 1 1 0.00 1.152860 -0.041597 0.000000
11 1 1 0.00 1.280924 -0.044634 0.000000
12 1 1 0.00 1.408892 -0.050431 0.000000
13 1 1 0.00 1.536637 -0.059909 0.000000
14 1 1 0.00 1.663936 -0.074149 0.000000
15 1 1 0.00 1.790419 -0.094358 0.000000
16 1 1 0.00 1.915527 -0.121791 0.000000
17 1 1 0.00 2.038495 -0.157597 0.000000
18 1 1 0.00 2.158393 -0.202609 0.000000
19 1 1 0.00 2.274261 -0.257157 0.000000
20 1 1 0.00 2.385295 -0.320976 0.000000
21 1 1 0.00 2.490996 -0.393291 0.000000
22 1 1 0.00 0.000000 0.050000 0.000000
23 1 1 0.00 0.128102 0.049665 0.000000
24 1 1 0.00 0.256200 0.048731 0.000000
25 1 1 0.00 0.384294 0.047325 0.000000
26 1 1 0.00 0.512385 0.045606 0.000000
27 1 1 0.00 0.640474 0.043780 0.000000
28 1 1 0.00 0.768565 0.042102 0.000000
29 1 1 0.00 0.896661 0.040893 0.000000
30 1 1 0.00 1.024763 0.040558 0.000000
31 1 1 0.00 1.152860 0.041597 0.000000
32 1 1 0.00 1.280924 0.044634 0.000000
33 1 1 0.00 1.408892 0.050431 0.000000
34 1 1 0.00 1.536637 0.059909 0.000000
35 1 1 0.00 1.663936 0.074149 0.000000
36 1 1 0.00 1.790419 0.094358 0.000000
37 1 1 0.00 1.915527 0.121791 0.000000
38 1 1 0.00 2.038495 0.157597 0.000000
39 1 1 0.00 2.158393 0.202609 0.000000
40 1 1 0.00 2.274261 0.257157 0.000000
41 1 1 0.00 2.385295 0.320976 0.000000
42 1 1 0.00 2.490996 0.393291 0.000000
